	
                                 *****************
                                 * O   R   C   A *
                                 *****************

           --- An Ab Initio, DFT and Semiempirical electronic structure package ---

                  #######################################################
                  #                        -***-                        #
                  #          Department of theory and spectroscopy      #
                  #               Directorship: Frank Neese             #
                  #        Max Planck Institute fuer Kohlenforschung    #
                  #                Kaiser Wilhelm Platz 1               #
                  #                 D-45470 Muelheim/Ruhr               #
                  #                      Germany                        #
                  #                                                     #
                  #                  All rights reserved                #
                  #                        -***-                        #
                  #######################################################


                         Program Version 4.2.1 -  RELEASE  -


 With contributions from (in alphabetic order):
   Daniel Aravena         : Magnetic Suceptibility
   Michael Atanasov       : Ab Initio Ligand Field Theory (pilot matlab implementation)
   Alexander A. Auer      : GIAO ZORA, VPT2
   Ute Becker             : Parallelization
   Giovanni Bistoni       : ED, misc. LED, open-shell LED, HFLD
   Martin Brehm           : Molecular dynamics
   Dmytro Bykov           : SCF Hessian
   Vijay G. Chilkuri      : MRCI spin determinant printing, contributions to CSF-ICE
   Dipayan Datta          : RHF DLPNO-CCSD density
   Achintya Kumar Dutta   : EOM-CC, STEOM-CC
   Dmitry Ganyushin       : Spin-Orbit,Spin-Spin,Magnetic field MRCI
   Miquel Garcia          : C-PCM Hessian, Gaussian charge scheme
   Yang Guo               : DLPNO-NEVPT2, CIM, IAO-localization
   Andreas Hansen         : Spin unrestricted coupled pair/coupled cluster methods
   Benjamin Helmich-Paris : CASSCF linear response (MC-RPA)
   Lee Huntington         : MR-EOM, pCC
   Robert Izsak           : Overlap fitted RIJCOSX, COSX-SCS-MP3, EOM
   Christian Kollmar      : KDIIS, OOCD, Brueckner-CCSD(T), CCSD density
   Simone Kossmann        : Meta GGA functionals, TD-DFT gradient, OOMP2, MP2 Hessian
   Martin Krupicka        : AUTO-CI
   Lucas Lang             : DCDCAS
   Dagmar Lenk            : GEPOL surface, SMD
   Dimitrios Liakos       : Extrapolation schemes; Compound Job, initial MDCI parallelization
   Dimitrios Manganas     : Further ROCIS development; embedding schemes
   Dimitrios Pantazis     : SARC Basis sets
   Taras Petrenko         : DFT Hessian,TD-DFT gradient, ASA, ECA, R-Raman, ABS, FL, XAS/XES, NRVS
   Peter Pinski           : DLPNO-MP2, DLPNO-MP2 Gradient
   Christoph Reimann      : Effective Core Potentials
   Marius Retegan         : Local ZFS, SOC
   Christoph Riplinger    : Optimizer, TS searches, QM/MM, DLPNO-CCSD(T), (RO)-DLPNO pert. Triples
   Tobias Risthaus        : Range-separated hybrids, TD-DFT gradient, RPA, STAB
   Michael Roemelt        : Original ROCIS implementation
   Masaaki Saitow         : Open-shell DLPNO-CCSD energy and density
   Barbara Sandhoefer     : DKH picture change effects
   Avijit Sen             : IP-ROCIS
   Kantharuban Sivalingam : CASSCF convergence, NEVPT2, FIC-MRCI
   Bernardo de Souza      : ESD, SOC TD-DFT
   Georgi Stoychev        : AutoAux, RI-MP2 NMR
   Willem Van den Heuvel  : Paramagnetic NMR
   Boris Wezisla          : Elementary symmetry handling
   Frank Wennmohs         : Technical directorship


 We gratefully acknowledge several colleagues who have allowed us to
 interface, adapt or use parts of their codes:
   Stefan Grimme, W. Hujo, H. Kruse,             : VdW corrections, initial TS optimization,
                  C. Bannwarth                     DFT functionals, gCP, sTDA/sTD-DF
   Ed Valeev, F. Pavosevic, A. Kumar             : LibInt (2-el integral package), F12 methods
   Garnet Chan, S. Sharma, J. Yang, R. Olivares  : DMRG
   Ulf Ekstrom                                   : XCFun DFT Library
   Mihaly Kallay                                 : mrcc  (arbitrary order and MRCC methods)
   Andreas Klamt, Michael Diedenhofen            : otool_cosmo (COSMO solvation model)
   Jiri Pittner, Ondrej Demel                    : Mk-CCSD
   Frank Weinhold                                : gennbo (NPA and NBO analysis)
   Christopher J. Cramer and Donald G. Truhlar   : smd solvation model
   Lars Goerigk                                  : TD-DFT with DH, B97 family of functionals
   V. Asgeirsson, H. Jonsson                     : NEB implementation
   FAccTs GmbH                                   : IRC, NEB, NEB-TS, Multilevel, MM, QM/MM, CI optimization
   S Lehtola, MJT Oliveira, MAL Marques          : LibXC Library


 Your calculation uses the libint2 library for the computation of 2-el integrals
 For citations please refer to: http://libint.valeyev.net

 Your ORCA version has been built with support for libXC version: 4.2.3
 For citations please refer to: https://tddft.org/programs/libxc/

 This ORCA versions uses:
   CBLAS   interface :  Fast vector & matrix operations
   LAPACKE interface :  Fast linear algebra routines


----- Orbital basis set information -----
Your calculation utilizes the basis: def2-SVP
   F. Weigend and R. Ahlrichs, Phys. Chem. Chem. Phys. 7, 3297 (2005).

----- AuxJ basis set information -----
Your calculation utilizes the auxiliary basis: def2/J
   F. Weigend, Phys. Chem. Chem. Phys. 8, 1057 (2006).

================================================================================
                                        WARNINGS
                       Please study these warnings very carefully!
================================================================================


WARNING: Geometry Optimization
  ===> : Switching off AutoStart
         For restart on a previous wavefunction, please use MOREAD

INFO   : the flag for use of LIBINT has been found!

================================================================================
                                       INPUT FILE
================================================================================
NAME = water.inp
|  1> # avogadro generated ORCA input file 

|  2> # Advanced Mode

|  3> # 

|  4> ! B3LYP OPT FREQ def2-SVP def2/J NormalPrint Grid4  TightSCF PAL4

|  5> %scf

|  6> 	MaxIter 125

|  7> 	CNVDIIS 1

|  8> 	CNVSOSCF 1 

|  9> end

| 10> %output

| 11> 	print[p_mos] true

| 12> 	print[p_basis] 5

| 13> end

| 14> 

| 15> * xyz 0 1

| 16>    O       -3.38652        2.72713        0.01494

| 17>    H       -2.39719        2.69267       -0.01055

| 18>    H       -3.67588        1.96573       -0.54821

| 19> *

| 20> 

| 21> 
| 22>                          ****END OF INPUT****
================================================================================

                       *****************************
                       * Geometry Optimization Run *
                       *****************************

Geometry optimization settings:
Update method            Update   .... BFGS
Choice of coordinates    CoordSys .... Z-matrix Internals
Initial Hessian          InHess   .... Almoef's Model

Convergence Tolerances:
Energy Change            TolE     ....  5.0000e-06 Eh
Max. Gradient            TolMAXG  ....  3.0000e-04 Eh/bohr
RMS Gradient             TolRMSG  ....  1.0000e-04 Eh/bohr
Max. Displacement        TolMAXD  ....  4.0000e-03 bohr
RMS Displacement         TolRMSD  ....  2.0000e-03 bohr
Strict Convergence                ....  False
------------------------------------------------------------------------------
                        ORCA OPTIMIZATION COORDINATE SETUP
------------------------------------------------------------------------------

The optimization will be done in new redundant internal coordinates
Making redundant internal coordinates   ...  (new redundants) done
Evaluating the initial hessian          ...  (Almloef) done
Evaluating the coordinates              ...  done
Calculating the B-matrix                .... done
Calculating the G-matrix                .... done
Diagonalizing the G-matrix              .... done
The first mode is                       ....    0
The number of degrees of freedom        ....    3

    -----------------------------------------------------------------
                    Redundant Internal Coordinates


    -----------------------------------------------------------------
         Definition                    Initial Value    Approx d2E/dq
    -----------------------------------------------------------------
      1. B(H   1,O   0)                  0.9903         0.465256   
      2. B(H   2,O   0)                  0.9903         0.465268   
      3. A(H   1,O   0,H   2)          104.5094         0.310409   
    -----------------------------------------------------------------

Number of atoms                         .... 3
Number of degrees of freedom            .... 3

         *************************************************************
         *                GEOMETRY OPTIMIZATION CYCLE   1            *
         *************************************************************
---------------------------------
CARTESIAN COORDINATES (ANGSTROEM)
---------------------------------
  O     -3.386520    2.727130    0.014940
  H     -2.397190    2.692670   -0.010550
  H     -3.675880    1.965730   -0.548210

----------------------------
CARTESIAN COORDINATES (A.U.)
----------------------------
  NO LB      ZA    FRAG     MASS         X           Y           Z
   0 O     8.0000    0    15.999   -6.399595    5.153529    0.028233
   1 H     1.0000    0     1.008   -4.530033    5.088409   -0.019937
   2 H     1.0000    0     1.008   -6.946407    3.714691   -1.035967

--------------------------------
INTERNAL COORDINATES (ANGSTROEM)
--------------------------------
 O      0   0   0     0.000000000000     0.00000000     0.00000000
 H      1   0   0     0.990258087874     0.00000000     0.00000000
 H      1   2   0     0.990251024791   104.50943531     0.00000000

---------------------------
INTERNAL COORDINATES (A.U.)
---------------------------
 O      0   0   0     0.000000000000     0.00000000     0.00000000
 H      1   0   0     1.871316587983     0.00000000     0.00000000
 H      1   2   0     1.871303240690   104.50943531     0.00000000

---------------------
BASIS SET INFORMATION
---------------------
There are 2 groups of distinct atoms

 Group   1 Type O   : 7s4p1d contracted to 3s2p1d pattern {511/31/1}
 Group   2 Type H   : 4s1p contracted to 2s1p pattern {31/1}

Atom   0O    basis set group =>   1
Atom   1H    basis set group =>   2
Atom   2H    basis set group =>   2

-------------------------
BASIS SET IN INPUT FORMAT
-------------------------

 # Basis set for element : H 
 NewGTO H 
 S 3 
   1      13.0107010000      0.0334854848
   2       1.9622572000      0.2347218709
   3       0.4445379600      0.8137702853
 S 1 
   1       0.1219496200      1.0000000000
 P 1 
   1       0.8000000000      1.0000000000
  end;

 # Basis set for element : O 
 NewGTO O 
 S 5 
   1    2266.1767785000     -0.0053893504
   2     340.8701019100     -0.0402347214
   3      77.3631351670     -0.1800818421
   4      21.4796449400     -0.4682885766
   5       6.6589433124     -0.4469261716
 S 1 
   1       0.8097597567      1.0000000000
 S 1 
   1       0.2553077223      1.0000000000
 P 3 
   1      17.7215043170      0.0626302488
   2       3.8635505440      0.3333113849
   3       1.0480920883      0.7414863830
 P 1 
   1       0.2764154441      1.0000000000
 D 1 
   1       1.2000000000      1.0000000000
  end;

---------------------------------
AUXILIARY/J BASIS SET INFORMATION
---------------------------------
There are 2 groups of distinct atoms

 Group   1 Type O   : 12s5p4d2f1g contracted to 6s4p3d1f1g pattern {711111/2111/211/2/1}
 Group   2 Type H   : 5s2p1d contracted to 3s1p1d pattern {311/2/1}

Atom   0O    basis set group =>   1
Atom   1H    basis set group =>   2
Atom   2H    basis set group =>   2

-------------------------------------
AUXILIARY/J BASIS SET IN INPUT FORMAT
-------------------------------------

 # Auxiliary/J basis set for element : H 
 NewAuxJGTO H 
 S 3 
   1      15.6752927000      0.1007184237
   2       3.6063578000      0.3404257499
   3       1.2080016000      0.6491996172
 S 1 
   1       0.4726794000      1.0000000000
 S 1 
   1       0.2018100000      1.0000000000
 P 2 
   1       2.0281365000      0.5596620919
   2       0.5358730000      0.5596620919
 D 1 
   1       2.2165124000      1.0000000000
  end;

 # Auxiliary/J basis set for element : O 
 NewAuxJGTO O 
 S 7 
   1    2876.8216605000      0.0168151159
   2    1004.7443032000      0.0340137548
   3     369.7579954000      0.1194951309
   4     142.9442404000      0.2664627624
   5      57.8366425000      0.4202764046
   6      24.3864983000      0.2765077335
   7      10.6622662000      0.0057008815
 S 1 
   1       4.8070437000     -1.0000000000
 S 1 
   1       2.2210770000      1.0000000000
 S 1 
   1       1.0447795000      1.0000000000
 S 1 
   1       0.4968425000      1.0000000000
 S 1 
   1       0.2371384000      1.0000000000
 P 2 
   1      64.2613382000     -0.2731534179
   2      16.3006076000     -0.8168011598
 P 1 
   1       4.3550542000      1.0000000000
 P 1 
   1       1.2019554000      1.0000000000
 P 1 
   1       0.3354196000      1.0000000000
 D 2 
   1       9.2146611000     -0.4661230638
   2       2.8435251000     -0.6600908911
 D 1 
   1       0.9955759000     -1.0000000000
 D 1 
   1       0.3649441000     -1.0000000000
 F 2 
   1       2.6420115000      0.5931563945
   2       0.7345613000      0.5931563945
 G 1 
   1       1.3931000000     -1.0000000000
  end;



           ************************************************************
           *        Program running with 4 parallel MPI-processes     *
           *              working on a common directory               *
           ************************************************************
------------------------------------------------------------------------------
                           ORCA GTO INTEGRAL CALCULATION
------------------------------------------------------------------------------

                         BASIS SET STATISTICS AND STARTUP INFO

 # of primitive gaussian shells          ...   22
 # of primitive gaussian functions       ...   38
 # of contracted shells                  ...   12
 # of contracted basis functions         ...   24
 Highest angular momentum                ...    2
 Maximum contraction depth               ...    5
 Integral package used                   ... LIBINT
 Integral threshhold            Thresh   ...  2.500e-11
 Primitive cut-off              TCut     ...  2.500e-12


------------------------------ INTEGRAL EVALUATION ----------------------------


 * One electron integrals 
 Pre-screening matrix                    ... done
 Shell pair data                         ... done (   0.000 sec)

Timings:
 Total evaluation time               ...     0.021 sec (   0.000 min)
 One electron matrix time            ...     0.016 sec (   0.000 min) = 76.2%
 Schwartz matrix evaluation time     ...     0.179 sec (   0.003 min) =852.4%



           ************************************************************
           *        Program running with 4 parallel MPI-processes     *
           *              working on a common directory               *
           ************************************************************
-------------------------------------------------------------------------------
                                 ORCA SCF
-------------------------------------------------------------------------------

------------
SCF SETTINGS
------------
Hamiltonian:
 Density Functional     Method          .... DFT(GTOs)
 Exchange Functional    Exchange        .... B88
   X-Alpha parameter    XAlpha          ....  0.666667
   Becke's b parameter  XBeta           ....  0.004200
 Correlation Functional Correlation     .... LYP
 LDA part of GGA corr.  LDAOpt          .... VWN-5
 Gradients option       PostSCFGGA      .... off
 Hybrid DFT is turned on
   Fraction HF Exchange ScalHFX         ....  0.200000
   Scaling of DF-GGA-X  ScalDFX         ....  0.720000
   Scaling of DF-GGA-C  ScalDFC         ....  0.810000
   Scaling of DF-LDA-C  ScalLDAC        ....  1.000000
   Perturbative correction              ....  0.000000
   Density functional embedding theory  .... OFF
   NL short-range parameter             ....  4.800000


General Settings:
 Integral files         IntName         .... water
 Hartree-Fock type      HFTyp           .... RHF
 Total Charge           Charge          ....    0
 Multiplicity           Mult            ....    1
 Number of Electrons    NEL             ....   10
 Basis Dimension        Dim             ....   24
 Nuclear Repulsion      ENuc            ....      8.8880623045 Eh

Convergence Acceleration:
 DIIS                   CNVDIIS         .... on
   Start iteration      DIISMaxIt       ....    12
   Startup error        DIISStart       ....  0.200000
   # of expansion vecs  DIISMaxEq       ....     5
   Bias factor          DIISBfac        ....   1.050
   Max. coefficient     DIISMaxC        ....  10.000
 Newton-Raphson         CNVNR           .... off
 SOSCF                  CNVSOSCF        .... on
   Start iteration      SOSCFMaxIt      ....   150
   Startup grad/error   SOSCFStart      ....  0.003300
 Level Shifting         CNVShift        .... on
   Level shift para.    LevelShift      ....    0.2500
   Turn off err/grad.   ShiftErr        ....    0.0010
 Zerner damping         CNVZerner       .... off
 Static damping         CNVDamp         .... on
   Fraction old density DampFac         ....    0.7000
   Max. Damping (<1)    DampMax         ....    0.9800
   Min. Damping (>=0)   DampMin         ....    0.0000
   Turn off err/grad.   DampErr         ....    0.1000
 Fernandez-Rico         CNVRico         .... off

SCF Procedure:
 Maximum # iterations   MaxIter         ....   125
 SCF integral mode      SCFMode         .... Direct
   Integral package                     .... LIBINT
 Reset frequency        DirectResetFreq ....    20
 Integral Threshold     Thresh          ....  2.500e-11 Eh
 Primitive CutOff       TCut            ....  2.500e-12 Eh

Convergence Tolerance:
 Convergence Check Mode ConvCheckMode   .... Total+1el-Energy
 Convergence forced     ConvForced      .... 0
 Energy Change          TolE            ....  1.000e-08 Eh
 1-El. energy change                    ....  1.000e-05 Eh
 Orbital Gradient       TolG            ....  1.000e-05
 Orbital Rotation angle TolX            ....  1.000e-05
 DIIS Error             TolErr          ....  5.000e-07


Diagonalization of the overlap matrix:
Smallest eigenvalue                        ... 4.008e-02
Time for diagonalization                   ...    0.002 sec
Threshold for overlap eigenvalues          ... 1.000e-08
Number of eigenvalues below threshold      ... 0
Time for construction of square roots      ...    0.003 sec
Total time needed                          ...    0.005 sec

-------------------
DFT GRID GENERATION
-------------------

General Integration Accuracy     IntAcc      ...  4.670
Radial Grid Type                 RadialGrid  ... Gauss-Chebyshev
Angular Grid (max. acc.)         AngularGrid ... Lebedev-302
Angular grid pruning method      GridPruning ... 3 (G Style)
Weight generation scheme         WeightScheme... Becke
Basis function cutoff            BFCut       ...    1.0000e-11
Integration weight cutoff        WCut        ...    1.0000e-14
Grids for H and He will be reduced by one unit

# of grid points (after initial pruning)     ...  13000 (   0.0 sec)
# of grid points (after weights+screening)   ...  12898 (   0.0 sec)
nearest neighbour list constructed           ...    0.0 sec
Grid point re-assignment to atoms done       ...    0.0 sec
Grid point division into batches done        ...    0.0 sec
Reduced shell lists constructed in    0.0 sec

Total number of grid points                  ...    12898
Total number of batches                      ...      203
Average number of points per batch           ...       63
Average number of grid points per atom       ...     4299
Average number of shells per batch           ...    10.44 (87.02%)
Average number of basis functions per batch  ...    20.71 (86.30%)
Average number of large shells per batch     ...     9.88 (94.66%)
Average number of large basis fcns per batch ...    19.62 (94.71%)
Maximum spatial batch extension              ...  14.99, 16.88, 15.22 au
Average spatial batch extension              ...   0.80,  0.90,  0.87 au

Time for grid setup =    0.068 sec

------------------------------
INITIAL GUESS: MODEL POTENTIAL
------------------------------
Loading Hartree-Fock densities                     ... done
Calculating cut-offs                               ... done
Setting up the integral package                    ... done
Initializing the effective Hamiltonian             ... done
Starting the Coulomb interaction                   ... done (   0.0 sec)
Reading the grid                                   ... done
Mapping shells                                     ... done
Starting the XC term evaluation                    ... done (   0.0 sec)
  promolecular density results
     # of electrons  =      9.999018951
     EX              =     -8.769314859
     EC              =     -0.333750291
     EX+EC           =     -9.103065151
Transforming the Hamiltonian                       ... done (   0.0 sec)
Diagonalizing the Hamiltonian                      ... done (   0.0 sec)
Back transforming the eigenvectors                 ... done (   0.0 sec)
Now organizing SCF variables                       ... done
                      ------------------
                      INITIAL GUESS DONE (   0.3 sec)
                      ------------------
--------------
SCF ITERATIONS
--------------
               ***  Starting incremental Fock matrix formation  ***

                         ----------------------------
                         !        ITERATION     0   !
                         ----------------------------
   Total Energy        :     -76.226649375893 Eh
   Energy Change       :     -76.226649375893 Eh
   MAX-DP              :       0.086222572772
   RMS-DP              :       0.009223662413
   Actual Damping      :       0.7000
   Actual Level Shift  :       0.2500 Eh
   Int. Num. El.       :    10.00000308 (UP=    5.00000154 DN=    5.00000154)
   Exchange            :    -7.33228157
   Correlation         :    -0.41014586


                         ----------------------------
                         !        ITERATION     1   !
                         ----------------------------
   Total Energy        :     -76.272849158664 Eh
   Energy Change       :      -0.046199782771 Eh
   MAX-DP              :       0.048484565400
   RMS-DP              :       0.005221571867
   Actual Damping      :       0.7000
   Actual Level Shift  :       0.2500 Eh
   Int. Num. El.       :    10.00000306 (UP=    5.00000153 DN=    5.00000153)
   Exchange            :    -7.19480509
   Correlation         :    -0.40498789

                               ***Turning on DIIS***

                         ----------------------------
                         !        ITERATION     2   !
                         ----------------------------
   Total Energy        :     -76.288190903827 Eh
   Energy Change       :      -0.015341745163 Eh
   MAX-DP              :       0.057653749840
   RMS-DP              :       0.006018697876
   Actual Damping      :       0.0000
   Actual Level Shift  :       0.2500 Eh
   Int. Num. El.       :    10.00000302 (UP=    5.00000151 DN=    5.00000151)
   Exchange            :    -7.12232551
   Correlation         :    -0.40211577
   DIIS-Error          :       0.031673890230


                         ----------------------------
                         !        ITERATION     3   !
                         ----------------------------
   Total Energy        :     -76.314713494302 Eh
   Energy Change       :      -0.026522590474 Eh
   MAX-DP              :       0.029941124217
   RMS-DP              :       0.003311228120
   Actual Damping      :       0.0000
   Actual Level Shift  :       0.2500 Eh
   Int. Num. El.       :    10.00000288 (UP=    5.00000144 DN=    5.00000144)
   Exchange            :    -7.05345080
   Correlation         :    -0.39919020
   DIIS-Error          :       0.071480733149
   DIIS coefficients:
      0.68368   0.31632


                         ----------------------------
                         !        ITERATION     4   !
                         ----------------------------
   Total Energy        :     -76.319941827076 Eh
   Energy Change       :      -0.005228332774 Eh
   MAX-DP              :       0.005208946474
   RMS-DP              :       0.000628818304
   Actual Damping      :       0.0000
   Actual Level Shift  :       0.2500 Eh
   Int. Num. El.       :    10.00000289 (UP=    5.00000144 DN=    5.00000144)
   Exchange            :    -7.09888476
   Correlation         :    -0.40101053
   DIIS-Error          :       0.010646911093
   DIIS coefficients:
      0.15202  -0.06719   0.91517

                      *** Initiating the SOSCF procedure ***
                           *** Shutting down DIIS ***
                      *** Re-Reading the Fockian *** 
                      *** Removing any level shift *** 

                         ----------------------------
                         !        ITERATION     5   !
                         ----------------------------
   Total Energy        :     -76.320079676372 Eh
   Energy Change       :      -0.000137849296 Eh
   MAX-DP              :       0.001670522974
   RMS-DP              :       0.000182179505
   Orbital gradient    :       0.000842815574
   Orbital Rotation    :       0.000842815574
   Actual Damping      :       0.0000
   Int. Num. El.       :    10.00000288 (UP=    5.00000144 DN=    5.00000144)
   Exchange            :    -7.10478810
   Correlation         :    -0.40127595

               *** Restarting incremental Fock matrix formation ***

                         ----------------------------
                         !        ITERATION     6   !
                         ----------------------------
   Total Energy        :     -76.320086404523 Eh
   Energy Change       :      -0.000006728151 Eh
   MAX-DP              :       0.001380610338
   RMS-DP              :       0.000124802924
   Orbital gradient    :       0.000381297004
   Orbital Rotation    :       0.000946622215
   Actual Damping      :       0.0000
   Int. Num. El.       :    10.00000289 (UP=    5.00000144 DN=    5.00000144)
   Exchange            :    -7.10578121
   Correlation         :    -0.40132546


                         ----------------------------
                         !        ITERATION     7   !
                         ----------------------------
   Total Energy        :     -76.320086809286 Eh
   Energy Change       :      -0.000000404763 Eh
   MAX-DP              :       0.000436294154
   RMS-DP              :       0.000038873085
   Orbital gradient    :       0.000374824222
   Orbital Rotation    :       0.000165878591
   Actual Damping      :       0.0000
   Int. Num. El.       :    10.00000289 (UP=    5.00000145 DN=    5.00000145)
   Exchange            :    -7.10652517
   Correlation         :    -0.40135960


                         ----------------------------
                         !        ITERATION     8   !
                         ----------------------------
   Total Energy        :     -76.320087192039 Eh
   Energy Change       :      -0.000000382753 Eh
   MAX-DP              :       0.000134167072
   RMS-DP              :       0.000018813180
   Orbital gradient    :       0.000077780175
   Orbital Rotation    :       0.000126777511
   Actual Damping      :       0.0000
   Int. Num. El.       :    10.00000289 (UP=    5.00000145 DN=    5.00000145)
   Exchange            :    -7.10598068
   Correlation         :    -0.40133923


                         ----------------------------
                         !        ITERATION     9   !
                         ----------------------------
   Total Energy        :     -76.320087219136 Eh
   Energy Change       :      -0.000000027097 Eh
   MAX-DP              :       0.000022524529
   RMS-DP              :       0.000002611882
   Orbital gradient    :       0.000007829009
   Orbital Rotation    :       0.000019593195
   Actual Damping      :       0.0000
   Int. Num. El.       :    10.00000289 (UP=    5.00000145 DN=    5.00000145)
   Exchange            :    -7.10606179
   Correlation         :    -0.40134118

                 **** Energy Check signals convergence ****
              ***Rediagonalizing the Fockian in SOSCF/NRSCF***

               *****************************************************
               *                     SUCCESS                       *
               *           SCF CONVERGED AFTER  10 CYCLES          *
               *****************************************************

Setting up the final grid:

General Integration Accuracy     IntAcc      ...  5.010
Radial Grid Type                 RadialGrid  ... Gauss-Chebyshev
Angular Grid (max. acc.)         AngularGrid ... Lebedev-434
Angular grid pruning method      GridPruning ... 3 (G Style)
Weight generation scheme         WeightScheme... Becke
Basis function cutoff            BFCut       ...    1.0000e-11
Integration weight cutoff        WCut        ...    1.0000e-14
Grids for H and He will be reduced by one unit

# of grid points (after initial pruning)     ...  24226 (   0.0 sec)
# of grid points (after weights+screening)   ...  24012 (   0.0 sec)
nearest neighbour list constructed           ...    0.0 sec
Grid point re-assignment to atoms done       ...    0.0 sec
Grid point division into batches done        ...    0.2 sec
Reduced shell lists constructed in    0.2 sec

Total number of grid points                  ...    24012
Total number of batches                      ...      377
Average number of points per batch           ...       63
Average number of grid points per atom       ...     8004
Average number of shells per batch           ...    10.20 (84.98%)
Average number of basis functions per batch  ...    20.28 (84.51%)
Average number of large shells per batch     ...     9.68 (94.89%)
Average number of large basis fcns per batch ...    19.20 (94.66%)
Maximum spatial batch extension              ...  13.89, 16.29, 16.29 au
Average spatial batch extension              ...   0.67,  0.72,  0.75 au

Final grid set up in    0.2 sec
Final integration                            ... done (   0.1 sec)
Change in XC energy                          ...    -0.000008422
Integrated number of electrons               ...     9.999999726
Previous integrated no of electrons          ...    10.000002892

----------------
TOTAL SCF ENERGY
----------------

Total Energy       :          -76.32009564 Eh           -2076.77538 eV

Components:
Nuclear Repulsion  :            8.88806230 Eh             241.85647 eV
Electronic Energy  :          -85.20815795 Eh           -2318.63185 eV
One Electron Energy:         -122.57271406 Eh           -3335.37312 eV
Two Electron Energy:           37.36455612 Eh            1016.74126 eV

Virial components:
Potential Energy   :         -152.08147344 Eh           -4138.34728 eV
Kinetic Energy     :           75.76137780 Eh            2061.57190 eV
Virial Ratio       :            2.00737471


DFT components:
N(Alpha)           :        4.999999862923 electrons
N(Beta)            :        4.999999862923 electrons
N(Total)           :        9.999999725845 electrons
E(X)               :       -7.106070094648 Eh       
E(C)               :       -0.401342001536 Eh       
E(XC)              :       -7.507412096184 Eh       
DFET-embed. en.    :        0.000000000000 Eh       

---------------
SCF CONVERGENCE
---------------

  Last Energy change         ...   -5.6227e-10  Tolerance :   1.0000e-08
  Last MAX-Density change    ...    1.4756e-06  Tolerance :   1.0000e-07
  Last RMS-Density change    ...    1.5129e-07  Tolerance :   5.0000e-09
  Last Orbital Gradient      ...    1.5732e-06  Tolerance :   1.0000e-05
  Last Orbital Rotation      ...    1.0262e-06  Tolerance :   1.0000e-05

             **** THE GBW FILE WAS UPDATED (water.gbw) ****
             **** DENSITY FILE WAS UPDATED (water.scfp) ****
             **** ENERGY FILE WAS UPDATED (water.en.tmp) ****
             **** THE GBW FILE WAS UPDATED (water.gbw) ****
             **** DENSITY FILE WAS UPDATED (water.scfp) ****
----------------
ORBITAL ENERGIES
----------------

  NO   OCC          E(Eh)            E(eV) 
   0   2.0000     -19.118586      -520.2432 
   1   2.0000      -0.965249       -26.2657 
   2   2.0000      -0.502001       -13.6601 
   3   2.0000      -0.359946        -9.7946 
   4   2.0000      -0.286004        -7.7826 
   5   0.0000       0.042726         1.1626 
   6   0.0000       0.120659         3.2833 
   7   0.0000       0.548193        14.9171 
   8   0.0000       0.598225        16.2785 
   9   0.0000       0.919809        25.0293 
  10   0.0000       0.923433        25.1279 
  11   0.0000       1.009620        27.4731 
  12   0.0000       1.095341        29.8057 
  13   0.0000       1.342826        36.5402 
  14   0.0000       1.422466        38.7073 
  15   0.0000       1.550214        42.1835 
  16   0.0000       1.756973        47.8097 
  17   0.0000       2.152281        58.5666 
  18   0.0000       2.201981        59.9190 
  19   0.0000       2.935384        79.8759 
  20   0.0000       2.981873        81.1409 
  21   0.0000       3.149072        85.6906 
  22   0.0000       3.471210        94.4564 
  23   0.0000       3.791129       103.1619 
------------------
MOLECULAR ORBITALS
------------------
                      0         1         2         3         4         5   
                 -19.11859  -0.96525  -0.50200  -0.35995  -0.28600   0.04273
                   2.00000   2.00000   2.00000   2.00000   2.00000   0.00000
                  --------  --------  --------  --------  --------  --------
  0O   1s        -0.988868  0.277655 -0.000001 -0.109296 -0.000000  0.102839
  0O   2s         0.039079  0.556550 -0.000001 -0.215185 -0.000000  0.167471
  0O   3s        -0.014334  0.274653 -0.000005 -0.361692 -0.000001  0.938901
  0O   1pz       -0.001378 -0.056644 -0.172162 -0.264739 -0.513566 -0.124596
  0O   1px        0.001639  0.067355 -0.409440  0.314807 -0.000001  0.148167
  0O   1py       -0.001864 -0.076585 -0.232770 -0.357938  0.379845 -0.168460
  0O   2pz        0.000156 -0.002107 -0.071442 -0.167979 -0.395096 -0.170097
  0O   2px       -0.000185  0.002505 -0.169910  0.199749 -0.000000  0.202271
  0O   2py        0.000210 -0.002849 -0.096594 -0.227115  0.292223 -0.229974
  0O   1dz2      -0.000556 -0.002852  0.006323 -0.003020  0.012952 -0.002713
  0O   1dxz       0.000272  0.000182  0.004341 -0.008573 -0.008892 -0.003448
  0O   1dyz       0.000815  0.004919  0.009872  0.010517  0.004580  0.006872
  0O   1dx2y2     0.000463  0.001927 -0.016998 -0.001208  0.007477  0.000491
  0O   1dxy       0.000368  0.000246  0.005870 -0.011592  0.006577 -0.004661
  1H   1s        -0.001927  0.194810 -0.324480  0.201166  0.000001 -0.123919
  1H   2s         0.002322  0.014387 -0.110908  0.072072 -0.000001 -0.810949
  1H   1pz       -0.000099 -0.003344 -0.007449 -0.014646 -0.023782 -0.001994
  1H   1px        0.002989 -0.033260  0.026985 -0.012798  0.000000 -0.001868
  1H   1py       -0.000134 -0.004520 -0.010072 -0.019801  0.017589 -0.002698
  2H   1s        -0.001927  0.194814  0.324482  0.201165  0.000002 -0.123914
  2H   2s         0.002322  0.014386  0.110908  0.072070 -0.000000 -0.810937
  2H   1pz       -0.001709  0.017532  0.017612  0.002293 -0.023782  0.000383
  2H   1px       -0.000839  0.016387 -0.002815  0.027486  0.000000  0.003788
  2H   1py       -0.002310  0.023705  0.023812  0.003101  0.017590  0.000515
                      6         7         8         9        10        11   
                   0.12066   0.54819   0.59822   0.91981   0.92343   1.00962
                   0.00000   0.00000   0.00000   0.00000   0.00000   0.00000
                  --------  --------  --------  --------  --------  --------
  0O   1s         0.000001  0.000004 -0.101972  0.138391  0.000166  0.000006
  0O   2s         0.000000  0.000018 -0.382960  0.591848  0.000706  0.000033
  0O   3s         0.000016 -0.000035  0.434216 -0.144763 -0.000146 -0.000053
  0O   1pz       -0.129954  0.103103  0.178716  0.382292  0.774923 -0.268031
  0O   1px       -0.309062  0.245232 -0.212498 -0.455700 -0.000540 -0.637516
  0O   1py       -0.175704  0.139399  0.241627  0.518853 -0.572157 -0.362432
  0O   2pz       -0.208247  0.113289  0.004354 -0.544543 -0.811893  0.589971
  0O   2px       -0.495257  0.269411 -0.005154  0.648672  0.000756  1.403157
  0O   2py       -0.281559  0.153174  0.005890 -0.738323  0.599065  0.797710
  0O   1dz2       0.002074  0.028420 -0.040658  0.005405 -0.001077 -0.003786
  0O   1dxz       0.001424  0.019510  0.026402 -0.008400  0.000736 -0.002596
  0O   1dyz       0.003238  0.044365  0.055719 -0.004442 -0.000389 -0.005909
  0O   1dx2y2    -0.005575 -0.076395  0.036298 -0.006640 -0.000637  0.010173
  0O   1dxy       0.001926  0.026377  0.035696 -0.011362 -0.000565 -0.003516
  1H   1s         0.114021 -0.954781  0.855521 -0.358156 -0.000433 -0.343560
  1H   2s         1.244736  0.873751 -0.654479  0.004785  0.000020 -0.767867
  1H   1pz       -0.002528  0.037502  0.045625 -0.061482 -0.028903  0.027320
  1H   1px        0.004788 -0.092482  0.178237  0.104121  0.000123  0.251234
  1H   1py       -0.003416  0.050701  0.061688 -0.083191  0.021209  0.036936
  2H   1s        -0.114018  0.954723  0.855600 -0.358165 -0.000453  0.343565
  2H   2s        -1.244760 -0.873686 -0.654535  0.004750 -0.000019  0.767889
  2H   1pz        0.003527 -0.064340 -0.084722 -0.078851 -0.028921  0.131746
  2H   1px       -0.002411  0.028641 -0.131748  0.062812  0.000080  0.127057
  2H   1py        0.004767 -0.086995 -0.114553 -0.106677  0.021176  0.178129
                     12        13        14        15        16        17   
                   1.09534   1.34283   1.42247   1.55021   1.75697   2.15228
                   0.00000   0.00000   0.00000   0.00000   0.00000   0.00000
                  --------  --------  --------  --------  --------  --------
  0O   1s         0.250993 -0.000008  0.083999 -0.000004  0.000000  0.000020
  0O   2s         1.574697 -0.000059  0.685725 -0.000033  0.000003  0.000079
  0O   3s        -2.734674  0.000128 -1.566117  0.000074 -0.000012  0.000120
  0O   1pz       -0.052130  0.000010 -0.067060  0.025941 -0.019249  0.240225
  0O   1px        0.062019 -0.000004  0.079744 -0.000004 -0.045773  0.571448
  0O   1py       -0.070505  0.000006 -0.090662 -0.019176 -0.026027  0.324797
  0O   2pz        0.301489 -0.000035  0.563605 -0.471536  0.283597  0.055101
  0O   2px       -0.358549  0.000046 -0.670221  0.000010  0.674470  0.131113
  0O   2py        0.407649 -0.000060  0.762048  0.348683  0.383459  0.074497
  0O   1dz2      -0.018087  0.083998 -0.036832 -0.141346  0.007408  0.047669
  0O   1dxz       0.036553  0.115334 -0.094841  0.097049  0.005095  0.032707
  0O   1dyz       0.009767  0.029692  0.122364 -0.049984  0.011577  0.074354
  0O   1dx2y2     0.025344  0.048496 -0.011141 -0.081607 -0.019938 -0.128098
  0O   1dxy       0.049416 -0.085294 -0.128253 -0.071771  0.006879  0.044223
  1H   1s         0.500384 -0.000049  0.689691 -0.000021 -0.341310 -0.176427
  1H   2s         0.501564 -0.000012  0.168041 -0.000005 -0.087114 -0.341985
  1H   1pz        0.155037  0.535855 -0.366255  0.588189 -0.475582 -0.028265
  1H   1px       -0.155086  0.000010 -0.102525  0.000005  0.017289  0.846160
  1H   1py        0.209605 -0.396287 -0.495320 -0.434981 -0.643029 -0.038212
  2H   1s         0.500373 -0.000047  0.689687 -0.000046  0.341324  0.176315
  2H   2s         0.501556 -0.000022  0.168049 -0.000008  0.087115  0.341917
  2H   1pz        0.138617 -0.535849 -0.064634  0.588143  0.168240  0.483672
  2H   1px       -0.194109 -0.000045  0.614979 -0.000005 -0.748281  0.237148
  2H   1py        0.187423  0.396335 -0.087369 -0.435010  0.227429  0.653941
                     18        19        20        21        22        23   
                   2.20198   2.93538   2.98187   3.14907   3.47121   3.79113
                   0.00000   0.00000   0.00000   0.00000   0.00000   0.00000
                  --------  --------  --------  --------  --------  --------
  0O   1s        -0.142289 -0.000001  0.000001  0.001279  0.064730  0.000002
  0O   2s        -0.632886 -0.000006  0.000005  0.091646  0.046203  0.000012
  0O   3s        -0.754184  0.000019  0.000004 -0.462629  1.836099  0.000042
  0O   1pz        0.267060 -0.021275  0.000002 -0.002832 -0.160639 -0.140512
  0O   1px       -0.317431  0.000007 -0.000001  0.003361  0.191019 -0.334148
  0O   1py        0.361073  0.015736 -0.000004 -0.003824 -0.217190 -0.189976
  0O   2pz        0.121081  0.226998 -0.000010  0.242498 -0.426162 -0.371680
  0O   2px       -0.143954  0.000007  0.000001 -0.288356  0.506772 -0.883916
  0O   2py        0.163707 -0.167905  0.000006  0.327846 -0.576183 -0.502535
  0O   1dz2      -0.135531 -0.690517 -0.499324  0.070033 -0.541716  0.380232
  0O   1dxz       0.031757  0.473994 -0.685658  0.561829  0.245704  0.261061
  0O   1dyz       0.219794 -0.244138 -0.176549 -0.463593  0.806518  0.593655
  0O   1dx2y2     0.100138 -0.398662 -0.288284  0.162568  0.444365 -1.022155
  0O   1dxy       0.042937 -0.350623  0.507151  0.759560  0.332195  0.352948
  1H   1s         0.390176 -0.000013 -0.000003  0.262698 -1.055980  0.961580
  1H   2s         0.217647 -0.000002 -0.000001  0.050598 -0.232372  0.266687
  1H   1pz       -0.008262 -0.313629  0.294428 -0.274752 -0.020218  0.035786
  1H   1px       -0.870129  0.000010  0.000004 -0.106798  0.769594 -0.775659
  1H   1py       -0.011173  0.231989 -0.217776 -0.371446 -0.027329  0.048389
  2H   1s         0.390240 -0.000001 -0.000006  0.262691 -1.055968 -0.961641
  2H   2s         0.217746 -0.000003 -0.000001  0.050596 -0.232365 -0.266695
  2H   1pz        0.485221 -0.313665 -0.294414 -0.031718 -0.438189 -0.446815
  2H   1px        0.303216 -0.000010  0.000004  0.471199 -0.224470 -0.201821
  2H   1py        0.656038  0.232002  0.217745 -0.042866 -0.592454 -0.604106



                    ********************************
                    * MULLIKEN POPULATION ANALYSIS *
                    ********************************

-----------------------
MULLIKEN ATOMIC CHARGES
-----------------------
   0 O :   -0.318764
   1 H :    0.159383
   2 H :    0.159381
Sum of atomic charges:    0.0000000

--------------------------------
MULLIKEN REDUCED ORBITAL CHARGES
--------------------------------
  0 O s       :     3.709201  s :     3.709201
      pz      :     1.755733  p :     4.599564
      px      :     1.259057
      py      :     1.584774
      dz2     :     0.001407  d :     0.009999
      dxz     :     0.000595
      dyz     :     0.002918
      dx2y2   :     0.004304
      dxy     :     0.000774
  1 H s       :     0.773657  s :     0.773657
      pz      :     0.017089  p :     0.066961
      px      :     0.033809
      py      :     0.016063
  2 H s       :     0.773658  s :     0.773658
      pz      :     0.022981  p :     0.066961
      px      :     0.017146
      py      :     0.026834

------------------------
MULLIKEN OVERLAP CHARGES
------------------------
B(  0-O ,  1-H ) :   0.6322 B(  0-O ,  2-H ) :   0.6322 B(  1-H ,  2-H ) :  -0.0633 



                     *******************************
                     * LOEWDIN POPULATION ANALYSIS *
                     *******************************

----------------------
LOEWDIN ATOMIC CHARGES
----------------------
   0 O :   -0.173853
   1 H :    0.086928
   2 H :    0.086925

-------------------------------
LOEWDIN REDUCED ORBITAL CHARGES
-------------------------------
  0 O s       :     3.466208  s :     3.466208
      pz      :     1.742504  p :     4.689345
      px      :     1.336365
      py      :     1.610476
      dz2     :     0.002208  d :     0.018301
      dxz     :     0.000644
      dyz     :     0.005483
      dx2y2   :     0.008898
      dxy     :     0.001068
  1 H s       :     0.748766  s :     0.748766
      pz      :     0.042243  p :     0.164306
      px      :     0.085269
      py      :     0.036794
  2 H s       :     0.748766  s :     0.748766
      pz      :     0.061560  p :     0.164309
      px      :     0.030644
      py      :     0.072105

---------------------------------
LOEWDIN BOND ORDERS (THRESH 0.050000)
---------------------------------
B(  0-O ,  1-H ) :   1.1393 B(  0-O ,  2-H ) :   1.1393 

------------------------------------------
LOEWDIN REDUCED ORBITAL POPULATIONS PER MO
-------------------------------------------
THRESHOLD FOR PRINTING IS 0.1%
                      0         1         2         3         4         5   
                 -19.11859  -0.96525  -0.50200  -0.35995  -0.28600   0.04273
                   2.00000   2.00000   2.00000   2.00000   2.00000   0.00000
                  --------  --------  --------  --------  --------  --------
 0 O  s              99.9      60.8       0.0      12.7       0.0       8.2
 0 O  pz              0.0       0.5       7.2      17.9      61.5       1.7
 0 O  px              0.0       0.7      40.7      25.4       0.0       2.4
 0 O  py              0.0       0.9      13.2      32.8      33.6       3.1
 0 O  dyz             0.0       0.0       0.1       0.1       0.0       0.1
 0 O  dx2y2           0.0       0.0       0.4       0.0       0.0       0.0
 1 H  s               0.0      14.9      18.1       4.4       0.0      35.9
 1 H  pz              0.0       0.0       0.1       0.4       1.6       0.0
 1 H  px              0.1       3.6       0.6       0.0       0.0       6.1
 1 H  py              0.0       0.0       0.2       0.7       0.9       0.0
 2 H  s               0.0      14.9      18.1       4.4       0.0      35.9
 2 H  pz              0.0       1.1       0.3       0.1       1.6       1.8
 2 H  px              0.0       0.5       0.1       1.0       0.0       1.1
 2 H  py              0.0       2.0       0.6       0.1       0.9       3.3

                      6         7         8         9        10        11   
                   0.12066   0.54819   0.59822   0.91981   0.92343   1.00962
                   0.00000   0.00000   0.00000   0.00000   0.00000   0.00000
                  --------  --------  --------  --------  --------  --------
 0 O  s               0.0       0.0       3.5      10.9       0.0       0.0
 0 O  pz              2.0       1.2       2.2      18.1      61.8       9.9
 0 O  px             11.5       6.9       3.1      25.7       0.0      55.8
 0 O  py              3.7       2.2       4.1      33.3      33.7      18.0
 0 O  dz2             0.1       0.7       0.8       0.2       0.0       0.3
 0 O  dxz             0.0       0.4       0.3       0.1       0.0       0.1
 0 O  dyz             0.1       1.8       1.5       0.4       0.0       0.8
 0 O  dx2y2           0.4       5.4       0.6       0.2       0.0       2.3
 0 O  dxy             0.0       0.6       0.6       0.2       0.0       0.3
 1 H  s              34.6      36.0      34.2       0.9       0.0       2.4
 1 H  pz              0.1       0.7       0.5       1.6       1.5       1.0
 1 H  px              6.2       2.4       5.9       0.1       0.0       1.1
 1 H  py              0.1       1.3       0.9       2.9       0.8       1.8
 2 H  s              34.6      36.0      34.2       0.9       0.0       2.4
 2 H  pz              2.2       1.3       1.3       0.4       1.5       0.1
 2 H  px              0.2       0.6       3.8       3.6       0.0       3.7
 2 H  py              4.1       2.4       2.3       0.7       0.8       0.1

                     12        13        14        15        16        17   
                   1.09534   1.34283   1.42247   1.55021   1.75697   2.15228
                   0.00000   0.00000   0.00000   0.00000   0.00000   0.00000
                  --------  --------  --------  --------  --------  --------
 0 O  s              71.4       0.0      11.9       0.0       0.0       0.0
 0 O  pz              0.2       0.0       3.5       5.4       0.9       1.6
 0 O  px              0.3       0.0       5.0       0.0       5.3       8.9
 0 O  py              0.5       0.0       6.4       3.0       1.7       2.9
 0 O  dz2             1.0       2.5       0.9       5.6       0.1       1.5
 0 O  dxz             1.1       4.7       2.9       2.7       0.0       0.7
 0 O  dyz             1.3       0.3       7.4       0.7       0.2       3.7
 0 O  dx2y2           1.1       0.8       0.0       1.9       0.5      11.1
 0 O  dxy             2.0       2.6       5.3       1.5       0.1       1.3
 1 H  s               0.2       0.0       2.2       0.0       0.7       0.9
 1 H  pz              3.6      28.8       9.1      25.6      15.8       0.0
 1 H  px              0.1       0.0       0.4       0.0       0.3      33.2
 1 H  py              6.6      15.8      16.6      14.0      28.9       0.0
 2 H  s               0.2       0.0       2.2       0.0       0.7       0.9
 2 H  pz              0.2      28.8       1.9      25.6       1.0      10.8
 2 H  px              9.7       0.0      20.7       0.0      42.0       2.8
 2 H  py              0.4      15.8       3.5      14.0       1.9      19.7

                     18        19        20        21        22        23   
                   2.20198   2.93538   2.98187   3.14907   3.47121   3.79113
                   0.00000   0.00000   0.00000   0.00000   0.00000   0.00000
                  --------  --------  --------  --------  --------  --------
 0 O  s              10.9       0.0       0.0       0.4       9.6       0.0
 0 O  pz              1.7       0.7       0.0       0.4       0.7       0.7
 0 O  px              2.4       0.0       0.0       0.6       1.0       4.2
 0 O  py              3.1       0.4       0.0       0.7       1.3       1.4
 0 O  dz2             5.7      40.1      20.4       0.3      14.1       5.6
 0 O  dxz             0.5      18.9      38.4      23.5       3.0       2.6
 0 O  dyz            14.3       5.0       2.5      14.9      31.0      13.6
 0 O  dx2y2           3.3      13.4       6.8       2.1       9.5      40.2
 0 O  dxy             0.9      10.3      21.0      43.0       5.5       4.8
 1 H  s               0.8       0.0       0.0       0.2       6.1       7.3
 1 H  pz              0.0       3.6       3.5       2.4       0.1       0.0
 1 H  px             27.8       0.0       0.0       0.1       5.8       6.2
 1 H  py              0.0       2.0       1.9       4.4       0.1       0.0
 2 H  s               0.8       0.0       0.0       0.2       6.1       7.3
 2 H  pz              8.8       3.6       3.5       0.1       2.1       1.9
 2 H  px              3.1       0.0       0.0       6.4       0.1       0.7
 2 H  py             16.0       2.0       1.9       0.2       3.8       3.5



                      *****************************
                      * MAYER POPULATION ANALYSIS *
                      *****************************

  NA   - Mulliken gross atomic population
  ZA   - Total nuclear charge
  QA   - Mulliken gross atomic charge
  VA   - Mayer's total valence
  BVA  - Mayer's bonded valence
  FA   - Mayer's free valence

  ATOM       NA         ZA         QA         VA         BVA        FA
  0 O      8.3188     8.0000    -0.3188     1.9989     1.9989     0.0000
  1 H      0.8406     1.0000     0.1594     1.0048     1.0048     0.0000
  2 H      0.8406     1.0000     0.1594     1.0048     1.0048     0.0000

  Mayer bond orders larger than 0.100000
B(  0-O ,  1-H ) :   0.9994 B(  0-O ,  2-H ) :   0.9994 

-------
TIMINGS
-------

Total SCF time: 0 days 0 hours 0 min 4 sec 

Total time                  ....       4.142 sec
Sum of individual times     ....       3.662 sec  ( 88.4%)

Fock matrix formation       ....       3.149 sec  ( 76.0%)
  XC integration            ....       0.568 sec  ( 18.0% of F)
    Basis function eval.    ....       0.034 sec  (  6.0% of XC)
    Density eval.           ....       0.019 sec  (  3.3% of XC)
    XC-Functional eval.     ....       0.025 sec  (  4.4% of XC)
    XC-Potential eval.      ....       0.022 sec  (  3.9% of XC)
Diagonalization             ....       0.002 sec  (  0.0%)
Density matrix formation    ....       0.000 sec  (  0.0%)
Population analysis         ....       0.032 sec  (  0.8%)
Initial guess               ....       0.194 sec  (  4.7%)
Orbital Transformation      ....       0.000 sec  (  0.0%)
Orbital Orthonormalization  ....       0.000 sec  (  0.0%)
DIIS solution               ....       0.022 sec  (  0.5%)
SOSCF solution              ....       0.003 sec  (  0.1%)
Grid generation             ....       0.260 sec  (  6.3%)

-------------------------   --------------------
FINAL SINGLE POINT ENERGY       -76.320095641785
-------------------------   --------------------



           ************************************************************
           *        Program running with 4 parallel MPI-processes     *
           *              working on a common directory               *
           ************************************************************
------------------------------------------------------------------------------
                         ORCA SCF GRADIENT CALCULATION
------------------------------------------------------------------------------

Gradient of the Kohn-Sham DFT energy:
Kohn-Sham wavefunction type      ... RKS
Hartree-Fock exchange scaling    ...    0.200
Number of operators              ...    1
Number of atoms                  ...    3
Basis set dimensions             ...   24
Integral neglect threshold       ... 2.5e-11
Integral primitive cutoff        ... 2.5e-12

Nuclear repulsion gradient       ... done
One Electron Gradient            ... done
Pre-screening matrix             ... done
Starting the two electron gradient:
Two electron gradient done
Exchange-correlation gradient    ... done

------------------
CARTESIAN GRADIENT
------------------

   1   O   :   -0.012314077    0.013997003    0.010352860
   2   H   :    0.022105209    0.002066447    0.001527822
   3   H   :   -0.009791131   -0.016063450   -0.011880682

Difference to translation invariance:
           :   -0.0000000000    0.0000000000   -0.0000000000

Norm of the cartesian gradient     ...    0.0380135539
RMS gradient                       ...    0.0126711846
MAX gradient                       ...    0.0221052085

-------
TIMINGS
-------

Total SCF gradient time            ...        0.627 sec

One electron gradient       ....       0.004 sec  (  0.6%)
Prescreening matrices       ....       0.002 sec  (  0.3%)
Two electron gradient       ....       0.010 sec  (  1.6%)
XC gradient                 ....       0.422 sec  ( 67.3%)
------------------------------------------------------------------------------
                         ORCA GEOMETRY RELAXATION STEP
------------------------------------------------------------------------------

Reading the OPT-File                    .... done
Getting information on internals        .... done
Copying old internal coords+grads       .... done
Making the new internal coordinates     .... (new redundants).... done
Validating the new internal coordinates .... (new redundants).... done
Calculating the B-matrix                .... done
Calculating the G,G- and P matrices     .... done
Transforming gradient to internals      .... done
Projecting the internal gradient        .... done
Number of atoms                         ....   3
Number of internal coordinates          ....   3
Current Energy                          ....   -76.320095642 Eh
Current gradient norm                   ....     0.038013554 Eh/bohr
Maximum allowed component of the step   ....  0.300
Current trust radius                    ....  0.300
Evaluating the initial hessian          ....  (Almloef) done
Projecting the Hessian                  .... done
Forming the augmented Hessian           .... done
Diagonalizing the augmented Hessian     .... done
Last element of RFO vector              ....  0.997577214
Lowest eigenvalues of augmented Hessian:
 -0.002204456  0.310546616  0.465261923
Length of the computed step             ....  0.069736924
The final length of the internal step   ....  0.069736924
Converting the step to cartesian space:
 Initial RMS(Int)=    0.0402626317
Transforming coordinates:
 Iter   0:  RMS(Cart)=    0.0234914855 RMS(Int)=    0.0402756260
 Iter   1:  RMS(Cart)=    0.0001659624 RMS(Int)=    0.0003335295
 Iter   2:  RMS(Cart)=    0.0000037318 RMS(Int)=    0.0000087395
 Iter   3:  RMS(Cart)=    0.0000000778 RMS(Int)=    0.0000001869
done
Storing new coordinates                 .... done

                                .--------------------.
          ----------------------|Geometry convergence|-------------------------
          Item                value                   Tolerance       Converged
          ---------------------------------------------------------------------
          RMS gradient        0.0183389950            0.0001000000      NO
          MAX gradient        0.0219729885            0.0003000000      NO
          RMS step            0.0402626317            0.0020000000      NO
          MAX step            0.0470050305            0.0040000000      NO
          ........................................................
          Max(Bonds)      0.0249      Max(Angles)    1.21
          Max(Dihed)        0.00      Max(Improp)    0.00
          ---------------------------------------------------------------------

The optimization has not yet converged - more geometry cycles are needed


    ---------------------------------------------------------------------------
                         Redundant Internal Coordinates
                            (Angstroem and degrees)

        Definition                    Value    dE/dq     Step     New-Value
    ----------------------------------------------------------------------------
     1. B(H   1,O   0)                0.9903  0.021973 -0.0249    0.9654   
     2. B(H   2,O   0)                0.9903  0.021969 -0.0249    0.9654   
     3. A(H   1,O   0,H   2)          104.51  0.006596   -1.21    103.30   
    ----------------------------------------------------------------------------

         *************************************************************
         *                GEOMETRY OPTIMIZATION CYCLE   2            *
         *************************************************************
---------------------------------
CARTESIAN COORDINATES (ANGSTROEM)
---------------------------------
  O     -3.383746    2.723978    0.012609
  H     -2.419761    2.682204   -0.018291
  H     -3.656084    1.979348   -0.538138

----------------------------
CARTESIAN COORDINATES (A.U.)
----------------------------
  NO LB      ZA    FRAG     MASS         X           Y           Z
   0 O     8.0000    0    15.999   -6.394352    5.147572    0.023827
   1 H     1.0000    0     1.008   -4.572685    5.068631   -0.034565
   2 H     1.0000    0     1.008   -6.908997    3.740426   -1.016933

--------------------------------
INTERNAL COORDINATES (ANGSTROEM)
--------------------------------
 O      0   0   0     0.000000000000     0.00000000     0.00000000
 H      1   0   0     0.965384095679     0.00000000     0.00000000
 H      1   2   0     0.965382285517   103.30047316     0.00000000

---------------------------
INTERNAL COORDINATES (A.U.)
---------------------------
 O      0   0   0     0.000000000000     0.00000000     0.00000000
 H      1   0   0     1.824311554876     0.00000000     0.00000000
 H      1   2   0     1.824308134165   103.30047316     0.00000000



           ************************************************************
           *        Program running with 4 parallel MPI-processes     *
           *              working on a common directory               *
           ************************************************************


           ************************************************************
           *        Program running with 4 parallel MPI-processes     *
           *              working on a common directory               *
           ************************************************************

Diagonalization of the overlap matrix:
Smallest eigenvalue                        ... 3.788e-02
Time for diagonalization                   ...    0.002 sec
Threshold for overlap eigenvalues          ... 1.000e-08
Number of eigenvalues below threshold      ... 0
Time for construction of square roots      ...    0.010 sec
Total time needed                          ...    0.012 sec

-------------------
DFT GRID GENERATION
-------------------

General Integration Accuracy     IntAcc      ...  4.670
Radial Grid Type                 RadialGrid  ... Gauss-Chebyshev
Angular Grid (max. acc.)         AngularGrid ... Lebedev-302
Angular grid pruning method      GridPruning ... 3 (G Style)
Weight generation scheme         WeightScheme... Becke
Basis function cutoff            BFCut       ...    1.0000e-11
Integration weight cutoff        WCut        ...    1.0000e-14
Grids for H and He will be reduced by one unit

# of grid points (after initial pruning)     ...  13000 (   0.0 sec)
# of grid points (after weights+screening)   ...  12891 (   0.0 sec)
nearest neighbour list constructed           ...    0.0 sec
Grid point re-assignment to atoms done       ...    0.0 sec
Grid point division into batches done        ...    0.0 sec
Reduced shell lists constructed in    0.1 sec

Total number of grid points                  ...    12891
Total number of batches                      ...      203
Average number of points per batch           ...       63
Average number of grid points per atom       ...     4297
Average number of shells per batch           ...    10.46 (87.18%)
Average number of basis functions per batch  ...    20.77 (86.54%)
Average number of large shells per batch     ...     9.87 (94.30%)
Average number of large basis fcns per batch ...    19.60 (94.35%)
Maximum spatial batch extension              ...  14.94, 16.88, 15.22 au
Average spatial batch extension              ...   0.81,  0.90,  0.86 au

Time for grid setup =    0.105 sec

--------------
SCF ITERATIONS
--------------
ITER       Energy         Delta-E        Max-DP      RMS-DP      [F,P]     Damp
               ***  Starting incremental Fock matrix formation  ***
  0    -76.3208126096   0.000000000000 0.00353197  0.00045851  0.0090866 0.7000
                      *** Initiating the SOSCF procedure ***
                      *** Re-Reading the Fockian *** 
                      *** Removing any level shift *** 
ITER      Energy       Delta-E        Grad      Rot      Max-DP    RMS-DP
  1    -76.32091832  -0.0001057078  0.001349  0.001349  0.010207  0.001243
               *** Restarting incremental Fock matrix formation ***
  2    -76.32114740  -0.0002290835  0.002104  0.001735  0.004182  0.000378
  3    -76.32114369   0.0000037156  0.002407  0.000998  0.002043  0.000225
  4    -76.32116024  -0.0000165547  0.000150  0.000117  0.000174  0.000018
  5    -76.32116032  -0.0000000777  0.000063  0.000028  0.000039  0.000005
                  ***Gradient check signals convergence***
              ***Rediagonalizing the Fockian in SOSCF/NRSCF***

               *****************************************************
               *                     SUCCESS                       *
               *           SCF CONVERGED AFTER   6 CYCLES          *
               *****************************************************

Setting up the final grid:

General Integration Accuracy     IntAcc      ...  5.010
Radial Grid Type                 RadialGrid  ... Gauss-Chebyshev
Angular Grid (max. acc.)         AngularGrid ... Lebedev-434
Angular grid pruning method      GridPruning ... 3 (G Style)
Weight generation scheme         WeightScheme... Becke
Basis function cutoff            BFCut       ...    1.0000e-11
Integration weight cutoff        WCut        ...    1.0000e-14
Grids for H and He will be reduced by one unit

# of grid points (after initial pruning)     ...  24226 (   0.0 sec)
# of grid points (after weights+screening)   ...  24006 (   0.0 sec)
nearest neighbour list constructed           ...    0.0 sec
Grid point re-assignment to atoms done       ...    0.0 sec
Grid point division into batches done        ...    0.1 sec
Reduced shell lists constructed in    0.1 sec

Total number of grid points                  ...    24006
Total number of batches                      ...      377
Average number of points per batch           ...       63
Average number of grid points per atom       ...     8002
Average number of shells per batch           ...    10.18 (84.81%)
Average number of basis functions per batch  ...    20.18 (84.07%)
Average number of large shells per batch     ...     9.61 (94.47%)
Average number of large basis fcns per batch ...    18.99 (94.11%)
Maximum spatial batch extension              ...  13.92, 16.29, 16.29 au
Average spatial batch extension              ...   0.67,  0.71,  0.74 au

Final grid set up in    0.2 sec
Final integration                            ... done (   0.2 sec)
Change in XC energy                          ...    -0.000008265
Integrated number of electrons               ...    10.000000266
Previous integrated no of electrons          ...    10.000002438
Total Energy       :          -76.32116860 Eh           -2076.80458 eV
  Last Energy change         ...   -1.3967e-08  Tolerance :   1.0000e-08
  Last MAX-Density change    ...    1.8798e-06  Tolerance :   1.0000e-07
             **** THE GBW FILE WAS UPDATED (water.gbw) ****
             **** DENSITY FILE WAS UPDATED (water.scfp) ****
             **** ENERGY FILE WAS UPDATED (water.en.tmp) ****
             **** THE GBW FILE WAS UPDATED (water.gbw) ****
             **** DENSITY FILE WAS UPDATED (water.scfp) ****
Total SCF time: 0 days 0 hours 0 min 2 sec 

-------------------------   --------------------
FINAL SINGLE POINT ENERGY       -76.321168596556
-------------------------   --------------------



           ************************************************************
           *        Program running with 4 parallel MPI-processes     *
           *              working on a common directory               *
           ************************************************************
------------------------------------------------------------------------------
                         ORCA SCF GRADIENT CALCULATION
------------------------------------------------------------------------------

Gradient of the Kohn-Sham DFT energy:
Kohn-Sham wavefunction type      ... RKS
Hartree-Fock exchange scaling    ...    0.200
Number of operators              ...    1
Number of atoms                  ...    3
Basis set dimensions             ...   24
Integral neglect threshold       ... 2.5e-11
Integral primitive cutoff        ... 2.5e-12

Nuclear repulsion gradient       ... done
One Electron Gradient            ... done
Pre-screening matrix             ... done
Starting the two electron gradient:
Two electron gradient done
Exchange-correlation gradient    ... done

------------------
CARTESIAN GRADIENT
------------------

   1   O   :    0.001246460   -0.001418437   -0.001048101
   2   H   :   -0.001418710    0.000256202    0.000188668
   3   H   :    0.000172251    0.001162235    0.000859433

Difference to translation invariance:
           :   -0.0000000000    0.0000000000   -0.0000000000

Norm of the cartesian gradient     ...    0.0029828177
RMS gradient                       ...    0.0009942726
MAX gradient                       ...    0.0014187104

-------
TIMINGS
-------

Total SCF gradient time            ...        0.308 sec

One electron gradient       ....       0.006 sec  (  1.9%)
Prescreening matrices       ....       0.003 sec  (  1.0%)
Two electron gradient       ....       0.010 sec  (  3.2%)
XC gradient                 ....       0.056 sec  ( 18.2%)
------------------------------------------------------------------------------
                         ORCA GEOMETRY RELAXATION STEP
------------------------------------------------------------------------------

Reading the OPT-File                    .... done
Getting information on internals        .... done
Copying old internal coords+grads       .... done
Making the new internal coordinates     .... (new redundants).... done
Validating the new internal coordinates .... (new redundants).... done
Calculating the B-matrix                .... done
Calculating the G,G- and P matrices     .... done
Transforming gradient to internals      .... done
Projecting the internal gradient        .... done
Number of atoms                         ....   3
Number of internal coordinates          ....   3
Current Energy                          ....   -76.321168597 Eh
Current gradient norm                   ....     0.002982818 Eh/bohr
Maximum allowed component of the step   ....  0.300
Current trust radius                    ....  0.300
Updating the Hessian (BFGS)             .... done
Forming the augmented Hessian           .... done
Diagonalizing the augmented Hessian     .... done
Last element of RFO vector              ....  0.999990866
Lowest eigenvalues of augmented Hessian:
 -0.000008818  0.306988794  0.465261930
Length of the computed step             ....  0.004274174
The final length of the internal step   ....  0.004274174
Converting the step to cartesian space:
 Initial RMS(Int)=    0.0024676953
Transforming coordinates:
 Iter   0:  RMS(Cart)=    0.0010208495 RMS(Int)=    0.0024676286
 Iter   1:  RMS(Cart)=    0.0000008100 RMS(Int)=    0.0000012880
 Iter   2:  RMS(Cart)=    0.0000000014 RMS(Int)=    0.0000000021
done
Storing new coordinates                 .... done

                                .--------------------.
          ----------------------|Geometry convergence|-------------------------
          Item                value                   Tolerance       Converged
          ---------------------------------------------------------------------
          Energy change      -0.0010729548            0.0000050000      NO
          RMS gradient        0.0011987212            0.0001000000      NO
          MAX gradient        0.0014351091            0.0003000000      NO
          RMS step            0.0024676953            0.0020000000      NO
          MAX step            0.0028632715            0.0040000000      YES
          ........................................................
          Max(Bonds)      0.0015      Max(Angles)    0.08
          Max(Dihed)        0.00      Max(Improp)    0.00
          ---------------------------------------------------------------------

The optimization has not yet converged - more geometry cycles are needed


    ---------------------------------------------------------------------------
                         Redundant Internal Coordinates
                            (Angstroem and degrees)

        Definition                    Value    dE/dq     Step     New-Value
    ----------------------------------------------------------------------------
     1. B(H   1,O   0)                0.9654 -0.001434  0.0015    0.9669   
     2. B(H   2,O   0)                0.9654 -0.001435  0.0015    0.9669   
     3. A(H   1,O   0,H   2)          103.30  0.000441   -0.08    103.22   
    ----------------------------------------------------------------------------

         *************************************************************
         *                GEOMETRY OPTIMIZATION CYCLE   3            *
         *************************************************************
---------------------------------
CARTESIAN COORDINATES (ANGSTROEM)
---------------------------------
  O     -3.384307    2.724617    0.013081
  H     -2.418847    2.682244   -0.018261
  H     -3.656436    1.978668   -0.538640

----------------------------
CARTESIAN COORDINATES (A.U.)
----------------------------
  NO LB      ZA    FRAG     MASS         X           Y           Z
   0 O     8.0000    0    15.999   -6.395414    5.148780    0.024720
   1 H     1.0000    0     1.008   -4.570957    5.068708   -0.034508
   2 H     1.0000    0     1.008   -6.909663    3.739141   -1.017883

--------------------------------
INTERNAL COORDINATES (ANGSTROEM)
--------------------------------
 O      0   0   0     0.000000000000     0.00000000     0.00000000
 H      1   0   0     0.966898150619     0.00000000     0.00000000
 H      1   2   0     0.966897463554   103.22182834     0.00000000

---------------------------
INTERNAL COORDINATES (A.U.)
---------------------------
 O      0   0   0     0.000000000000     0.00000000     0.00000000
 H      1   0   0     1.827172704064     0.00000000     0.00000000
 H      1   2   0     1.827171405701   103.22182834     0.00000000



           ************************************************************
           *        Program running with 4 parallel MPI-processes     *
           *              working on a common directory               *
           ************************************************************


           ************************************************************
           *        Program running with 4 parallel MPI-processes     *
           *              working on a common directory               *
           ************************************************************

Diagonalization of the overlap matrix:
Smallest eigenvalue                        ... 3.798e-02
Time for diagonalization                   ...    0.002 sec
Threshold for overlap eigenvalues          ... 1.000e-08
Number of eigenvalues below threshold      ... 0
Time for construction of square roots      ...    0.009 sec
Total time needed                          ...    0.011 sec

-------------------
DFT GRID GENERATION
-------------------

General Integration Accuracy     IntAcc      ...  4.670
Radial Grid Type                 RadialGrid  ... Gauss-Chebyshev
Angular Grid (max. acc.)         AngularGrid ... Lebedev-302
Angular grid pruning method      GridPruning ... 3 (G Style)
Weight generation scheme         WeightScheme... Becke
Basis function cutoff            BFCut       ...    1.0000e-11
Integration weight cutoff        WCut        ...    1.0000e-14
Grids for H and He will be reduced by one unit

# of grid points (after initial pruning)     ...  13000 (   0.0 sec)
# of grid points (after weights+screening)   ...  12891 (   0.0 sec)
nearest neighbour list constructed           ...    0.0 sec
Grid point re-assignment to atoms done       ...    0.0 sec
Grid point division into batches done        ...    0.0 sec
Reduced shell lists constructed in    0.1 sec

Total number of grid points                  ...    12891
Total number of batches                      ...      203
Average number of points per batch           ...       63
Average number of grid points per atom       ...     4297
Average number of shells per batch           ...    10.42 (86.86%)
Average number of basis functions per batch  ...    20.69 (86.22%)
Average number of large shells per batch     ...     9.87 (94.65%)
Average number of large basis fcns per batch ...    19.60 (94.70%)
Maximum spatial batch extension              ...  14.94, 16.88, 15.22 au
Average spatial batch extension              ...   0.81,  0.91,  0.86 au

Time for grid setup =    0.808 sec

--------------
SCF ITERATIONS
--------------
ITER       Energy         Delta-E        Max-DP      RMS-DP      [F,P]     Damp
               ***  Starting incremental Fock matrix formation  ***
                      *** Initiating the SOSCF procedure ***
                      *** Re-Reading the Fockian *** 
                      *** Removing any level shift *** 
ITER      Energy       Delta-E        Grad      Rot      Max-DP    RMS-DP
  0    -76.32116347 -76.3211634705  0.000501  0.000501  0.000808  0.000095
               *** Restarting incremental Fock matrix formation ***
  1    -76.32116477  -0.0000013014  0.000194  0.000160  0.000437  0.000038
  2    -76.32116481  -0.0000000333  0.000200  0.000115  0.000213  0.000021
  3    -76.32116492  -0.0000001176  0.000014  0.000025  0.000033  0.000004
  4    -76.32116492  -0.0000000013  0.000005  0.000003  0.000004  0.000001
                 **** Energy Check signals convergence ****
              ***Rediagonalizing the Fockian in SOSCF/NRSCF***

               *****************************************************
               *                     SUCCESS                       *
               *           SCF CONVERGED AFTER   5 CYCLES          *
               *****************************************************

Setting up the final grid:

General Integration Accuracy     IntAcc      ...  5.010
Radial Grid Type                 RadialGrid  ... Gauss-Chebyshev
Angular Grid (max. acc.)         AngularGrid ... Lebedev-434
Angular grid pruning method      GridPruning ... 3 (G Style)
Weight generation scheme         WeightScheme... Becke
Basis function cutoff            BFCut       ...    1.0000e-11
Integration weight cutoff        WCut        ...    1.0000e-14
Grids for H and He will be reduced by one unit

# of grid points (after initial pruning)     ...  24226 (   0.0 sec)
# of grid points (after weights+screening)   ...  24007 (   0.0 sec)
nearest neighbour list constructed           ...    0.0 sec
Grid point re-assignment to atoms done       ...    0.0 sec
Grid point division into batches done        ...    0.2 sec
Reduced shell lists constructed in    0.2 sec

Total number of grid points                  ...    24007
Total number of batches                      ...      376
Average number of points per batch           ...       63
Average number of grid points per atom       ...     8002
Average number of shells per batch           ...    10.12 (84.30%)
Average number of basis functions per batch  ...    19.99 (83.29%)
Average number of large shells per batch     ...     9.63 (95.21%)
Average number of large basis fcns per batch ...    19.04 (95.26%)
Maximum spatial batch extension              ...  13.92, 16.29, 16.29 au
Average spatial batch extension              ...   0.69,  0.72,  0.74 au

Final grid set up in    0.2 sec
Final integration                            ... done (   0.0 sec)
Change in XC energy                          ...    -0.000008269
Integrated number of electrons               ...    10.000000240
Previous integrated no of electrons          ...    10.000002500
Total Energy       :          -76.32117319 Eh           -2076.80471 eV
  Last Energy change         ...   -8.7553e-11  Tolerance :   1.0000e-08
  Last MAX-Density change    ...    5.5087e-07  Tolerance :   1.0000e-07
             **** THE GBW FILE WAS UPDATED (water.gbw) ****
             **** DENSITY FILE WAS UPDATED (water.scfp) ****
             **** ENERGY FILE WAS UPDATED (water.en.tmp) ****
             **** THE GBW FILE WAS UPDATED (water.gbw) ****
             **** DENSITY FILE WAS UPDATED (water.scfp) ****
Total SCF time: 0 days 0 hours 0 min 2 sec 

-------------------------   --------------------
FINAL SINGLE POINT ENERGY       -76.321173192991
-------------------------   --------------------



           ************************************************************
           *        Program running with 4 parallel MPI-processes     *
[...]
 0 O  dyz            14.7       5.0       2.5      12.9      31.9      13.2
 0 O  dx2y2           3.4      13.2       6.8       2.5       8.9      39.2
 0 O  dxy             0.9      10.2      20.9      44.2       4.2       4.7
 1 H  s               0.8       0.0       0.0       0.2       6.8       8.1
 1 H  pz              0.0       3.9       3.6       2.4       0.1       0.0
 1 H  px             26.7       0.0       0.0       0.0       5.6       6.1
 1 H  py              0.0       2.1       2.0       4.4       0.1       0.0
 2 H  s               0.8       0.0       0.0       0.2       6.8       8.1
 2 H  pz              8.6       3.9       3.6       0.2       2.0       1.9
 2 H  px              2.5       0.0       0.0       6.4       0.1       0.7
 2 H  py             15.7       2.1       2.0       0.3       3.7       3.5



                      *****************************
                      * MAYER POPULATION ANALYSIS *
                      *****************************

  NA   - Mulliken gross atomic population
  ZA   - Total nuclear charge
  QA   - Mulliken gross atomic charge
  VA   - Mayer's total valence
  BVA  - Mayer's bonded valence
  FA   - Mayer's free valence

  ATOM       NA         ZA         QA         VA         BVA        FA
  0 O      8.2943     8.0000    -0.2943     2.0162     2.0162    -0.0000
  1 H      0.8529     1.0000     0.1471     1.0135     1.0135    -0.0000
  2 H      0.8529     1.0000     0.1471     1.0135     1.0135    -0.0000

  Mayer bond orders larger than 0.100000
B(  0-O ,  1-H ) :   1.0081 B(  0-O ,  2-H ) :   1.0081 

-------
TIMINGS
-------

Total SCF time: 0 days 0 hours 0 min 2 sec 

Total time                  ....       2.437 sec
Sum of individual times     ....       1.812 sec  ( 74.4%)

Fock matrix formation       ....       1.434 sec  ( 58.8%)
  XC integration            ....       0.237 sec  ( 16.5% of F)
    Basis function eval.    ....       0.018 sec  (  7.6% of XC)
    Density eval.           ....       0.014 sec  (  5.9% of XC)
    XC-Functional eval.     ....       0.010 sec  (  4.2% of XC)
    XC-Potential eval.      ....       0.011 sec  (  4.6% of XC)
Diagonalization             ....       0.010 sec  (  0.4%)
Density matrix formation    ....       0.001 sec  (  0.0%)
Population analysis         ....       0.058 sec  (  2.4%)
Initial guess               ....       0.001 sec  (  0.0%)
Orbital Transformation      ....       0.000 sec  (  0.0%)
Orbital Orthonormalization  ....       0.000 sec  (  0.0%)
DIIS solution               ....       0.000 sec  (  0.0%)
SOSCF solution              ....       0.017 sec  (  0.7%)
Grid generation             ....       0.291 sec  ( 11.9%)

-------------------------   --------------------
FINAL SINGLE POINT ENERGY       -76.321173689430
-------------------------   --------------------

                                *** OPTIMIZATION RUN DONE ***

                            ***************************************
                            *     ORCA property calculations      *
                            ***************************************

                                    ---------------------
                                    Active property flags
                                    ---------------------
   (+) Dipole Moment


------------------------------------------------------------------------------
                       ORCA ELECTRIC PROPERTIES CALCULATION
------------------------------------------------------------------------------

Dipole Moment Calculation                       ... on
Quadrupole Moment Calculation                   ... off
Polarizability Calculation                      ... off
GBWName                                         ... water.gbw
Electron density file                           ... water.scfp
The origin for moment calculation is the CENTER OF MASS  = (-6.322695,  5.066099 -0.036433)

-------------
DIPOLE MOMENT
-------------
                                X             Y             Z
Electronic contribution:     -0.12288       0.13972       0.10334
Nuclear contribution   :      0.57804      -0.65724      -0.48611
                        -----------------------------------------
Total Dipole Moment    :      0.45516      -0.51752      -0.38277
                        -----------------------------------------
Magnitude (a.u.)       :      0.78836
Magnitude (Debye)      :      2.00385



--------------------
Rotational spectrum 
--------------------
 
Rotational constants in cm-1:    26.031085    14.586010     9.348026 
Rotational constants in MHz : 780392.302092 437277.577098 280246.773675 

 Dipole components along the rotational axes: 
x,y,z [a.u.] :     0.000001    -0.788360     0.000000 
x,y,z [Debye]:     0.000001    -2.003852     0.000000 

 


           ************************************************************
           *        Program running with 4 parallel MPI-processes     *
           *              working on a common directory               *
           ************************************************************

-------------------------------------------------------------------------------
                               ORCA SCF HESSIAN
-------------------------------------------------------------------------------

Hessian of the Kohn-Sham DFT energy:
Kohn-Sham wavefunction type                      ... RKS
Hartree-Fock exchange scaling                    ...    0.200
Number of operators                              ...    1
Number of atoms                                  ...    3
Basis set dimensions                             ...   24
Integral neglect threshold                       ... 2.5e-11
Integral primitive cutoff                        ... 2.5e-12

Setting up DFT Hessian calculations              ... 
Electron density on the grid                     ... found on disk
Electron density on the final grid               ... found on disk
Building xc-kernel on the grid                   ... done   (      0.0 sec)
Building xc-kernel on the final grid             ... done   (      0.0 sec)
                                                     done   (      0.1 sec)

Nuclear repulsion Hessian                        ... done   (      0.0 sec)

----------------------------------------------------------
Detailed info about batch handling over perturbations
----------------------------------------------------------

Number of atoms                                    3
Total number of perturbations                      9
Number of perturbations per process                3
Storage mode                                  InCore

Batching info for step 0
Memory available                   ...       1005.3 MB
Memory needed per perturbation     ...          0.0 MB
Number of perturbations per batch  ...            3
Number of batches                  ...            1

Batching info for step 1
Memory available                   ...       1005.3 MB
Memory needed per perturbation     ...          0.0 MB
Number of perturbations per batch  ...            3
Number of batches                  ...            1

Batching info for step 2
Memory available                   ...       1005.3 MB
Memory needed per perturbation     ...          0.0 MB
Number of perturbations per batch  ...            1
Number of batches                  ...            3

Batching info for step 3
Memory available                   ...       1005.3 MB
Memory needed per perturbation     ...          0.0 MB
Number of perturbations per batch  ...            3
Number of batches                  ...            1

Batching info for step 4
Memory available                   ...       1005.3 MB
Memory needed per perturbation     ...          0.0 MB
Number of perturbations per batch  ...            3
Number of batches                  ...            1

Batching info for step 5
Memory available                   ...       1005.3 MB
Memory needed per perturbation     ...          0.0 MB
Number of perturbations per batch  ...            3
Number of batches                  ...            1

Batching info for step 6
Memory available                   ...       1005.3 MB
Memory needed per perturbation     ...          0.0 MB
Number of perturbations per batch  ...            3
Number of batches                  ...            1


----------------------------------------------
Forming right-hand sides of CP-SCF equations     ...
----------------------------------------------
One electron integral derivatives                ... done   (      0.2 sec)
Transforming the overlap derivative matrices     ... done   (      0.0 sec)
Making the Q(x) pseudodensities                  ... done   (      0.0 sec)
Adding the E*S(x)*S(y) terms to the Hessian      ... done   (      0.0 sec)
Calculating energy weighted overlap derivatives  ... done   (      0.2 sec)
Two electron integral derivatives                ... done   (      0.2 sec)
Exchange-correlation integral derivatives        ... done   (      0.3 sec)
tr(F(y)Q(x)) contribution to the Hessian         ... done   (      0.0 sec)
Response fock operator R(S(x))                   ... <ss|ss>:     406 b       0 skpd (  0.0%)    0.001 s ( 0.002 ms/b)
<ss|sp>:     784 b       0 skpd (  0.0%)    0.001 s ( 0.001 ms/b)
<ss|sd>:     196 b       0 skpd (  0.0%)    0.001 s ( 0.005 ms/b)
<ss|pp>:     280 b       0 skpd (  0.0%)    0.000 s ( 0.000 ms/b)
<ss|pd>:     112 b       0 skpd (  0.0%)    0.001 s ( 0.009 ms/b)
<ss|dd>:      28 b       0 skpd (  0.0%)    0.000 s ( 0.000 ms/b)
<sp|sp>:     406 b       0 skpd (  0.0%)    0.001 s ( 0.002 ms/b)
<sp|sd>:     196 b       0 skpd (  0.0%)    0.001 s ( 0.005 ms/b)
<sp|pp>:     280 b       0 skpd (  0.0%)    0.001 s ( 0.004 ms/b)
<sp|pd>:     112 b       0 skpd (  0.0%)    0.001 s ( 0.009 ms/b)
<sp|dd>:      28 b       0 skpd (  0.0%)    0.000 s ( 0.000 ms/b)
<sd|sd>:      28 b       0 skpd (  0.0%)    0.000 s ( 0.000 ms/b)
<sd|pp>:      70 b       0 skpd (  0.0%)    0.001 s ( 0.014 ms/b)
<sd|pd>:      28 b       0 skpd (  0.0%)    0.000 s ( 0.000 ms/b)
<sd|dd>:       7 b       0 skpd (  0.0%)    0.000 s ( 0.000 ms/b)
<pp|pp>:      55 b       0 skpd (  0.0%)    0.000 s ( 0.000 ms/b)
<pp|pd>:      40 b       0 skpd (  0.0%)    0.001 s ( 0.025 ms/b)
<pp|dd>:      10 b       0 skpd (  0.0%)    0.000 s ( 0.000 ms/b)
<pd|pd>:      10 b       0 skpd (  0.0%)    0.001 s ( 0.100 ms/b)
<pd|dd>:       4 b       0 skpd (  0.0%)    0.000 s ( 0.000 ms/b)
<dd|dd>:       1 b       0 skpd (  0.0%)    0.000 s ( 0.000 ms/b)
done   (      0.2 sec)
XC Response fock operator R(S(x))                ... done   (      0.1 sec)
tr(F(y)S(x)) contribution to the Hessian         ... done   (      0.0 sec)
Transforming and finalizing RHSs                 ... done   (      0.0 sec)

----------------------------------------------
Solving the CP-SCF equations                     ...
----------------------------------------------
     CP-SCF ITERATION   0: 
     CP-SCF ITERATION   1:      0.000808425336
     CP-SCF ITERATION   2:      0.000016492950
     CP-SCF ITERATION   3:      0.000000337801
     CP-SCF ITERATION   4:      0.000000005411

                                                 ... done   (      1.3 sec)
Forming perturbed density Hessian contributions  ... done   (      0.0 sec)
Making the perturbed densities                   ... done   (      0.0 sec)
2nd integral derivative contribs                 ... done   (      0.2 sec)
Exchange-correlation Hessian                     ... done   (      0.3 sec)
Dipol derivatives                                ... done   (      0.2 sec)

Total SCF Hessian time: 0 days 0 hours 0 min 5 sec 

Writing the Hessian file to the disk             ... done


Maximum memory used throughout the entire calculation: 87.2 MB

-----------------------
VIBRATIONAL FREQUENCIES
-----------------------

Scaling factor for frequencies =  1.000000000  (already applied!)

   0:         0.00 cm**-1
   1:         0.00 cm**-1
   2:         0.00 cm**-1
   3:         0.00 cm**-1
   4:         0.00 cm**-1
   5:         0.00 cm**-1
   6:      1638.27 cm**-1
   7:      3788.47 cm**-1
   8:      3883.58 cm**-1


------------
NORMAL MODES
------------

These modes are the Cartesian displacements weighted by the diagonal matrix
M(i,i)=1/sqrt(m[i]) where m[i] is the mass of the displaced atom
Thus, these vectors are normalized but *not* orthogonal

                  0          1          2          3          4          5    
      0       0.000000   0.000000   0.000000   0.000000   0.000000   0.000000
      1       0.000000   0.000000   0.000000   0.000000   0.000000   0.000000
      2       0.000000   0.000000   0.000000   0.000000   0.000000   0.000000
      3       0.000000   0.000000   0.000000   0.000000   0.000000   0.000000
      4       0.000000   0.000000   0.000000   0.000000   0.000000   0.000000
      5       0.000000   0.000000   0.000000   0.000000   0.000000   0.000000
      6       0.000000   0.000000   0.000000   0.000000   0.000000   0.000000
      7       0.000000   0.000000   0.000000   0.000000   0.000000   0.000000
      8       0.000000   0.000000   0.000000   0.000000   0.000000   0.000000
                   6          7          8    
      0      -0.040543  -0.029163  -0.056823
      1       0.046097   0.033140  -0.032313
      2       0.034094   0.024512  -0.023900
      3      -0.031312   0.706281   0.704162
      4      -0.566541   0.006871  -0.031620
      5      -0.419028   0.005080  -0.023389
      6       0.674804  -0.243411   0.197728
      7      -0.165109  -0.532877   0.544500
      8      -0.122120  -0.394129   0.402725


-----------
IR SPECTRUM
-----------

 Mode    freq (cm**-1)   T**2         TX         TY         TZ
-------------------------------------------------------------------
   6:      1638.27   55.372702  (  4.297849  -4.884098  -3.612033)
   7:      3788.47    4.799140  (  1.265638  -1.437705  -1.063157)
   8:      3883.58   26.640440  (  4.213721   2.396541   1.772453)

The first frequency considered to be a vibration is 6
The total number of vibrations considered is 3


--------------------------
THERMOCHEMISTRY AT 298.15K
--------------------------

Temperature         ... 298.15 K
Pressure            ... 1.00 atm
Total Mass          ... 18.02 AMU

Throughout the following assumptions are being made:
  (1) The electronic state is orbitally nondegenerate
  (2) There are no thermally accessible electronically excited states
  (3) Hindered rotations indicated by low frequency modes are not
      treated as such but are treated as vibrations and this may
      cause some error
  (4) All equations used are the standard statistical mechanics
      equations for an ideal gas
  (5) All vibrations are strictly harmonic

freq.    1638.27  E(vib)   ...       0.00 
freq.    3788.47  E(vib)   ...       0.00 
freq.    3883.58  E(vib)   ...       0.00 

------------
INNER ENERGY
------------

The inner energy is: U= E(el) + E(ZPE) + E(vib) + E(rot) + E(trans)
    E(el)   - is the total energy from the electronic structure calculation
              = E(kin-el) + E(nuc-el) + E(el-el) + E(nuc-nuc)
    E(ZPE)  - the the zero temperature vibrational energy from the frequency calculation
    E(vib)  - the the finite temperature correction to E(ZPE) due to population
              of excited vibrational states
    E(rot)  - is the rotational thermal energy
    E(trans)- is the translational thermal energy

Summary of contributions to the inner energy U:
Electronic energy                ...    -76.32117369 Eh
Zero point energy                ...      0.02121046 Eh      13.31 kcal/mol
Thermal vibrational correction   ...      0.00000275 Eh       0.00 kcal/mol
Thermal rotational correction    ...      0.00141627 Eh       0.89 kcal/mol
Thermal translational correction ...      0.00141627 Eh       0.89 kcal/mol
-----------------------------------------------------------------------
Total thermal energy                    -76.29712794 Eh


Summary of corrections to the electronic energy:
(perhaps to be used in another calculation)
Total thermal correction                  0.00283530 Eh       1.78 kcal/mol
Non-thermal (ZPE) correction              0.02121046 Eh      13.31 kcal/mol
-----------------------------------------------------------------------
Total correction                          0.02404575 Eh      15.09 kcal/mol


--------
ENTHALPY
--------

The enthalpy is H = U + kB*T
                kB is Boltzmann's constant
Total free energy                 ...    -76.29712794 Eh 
Thermal Enthalpy correction       ...      0.00094421 Eh       0.59 kcal/mol
-----------------------------------------------------------------------
Total Enthalpy                    ...    -76.29618373 Eh


Note: Rotational entropy computed according to Herzberg 
Infrared and Raman Spectra, Chapter V,1, Van Nostrand Reinhold, 1945 
Point Group:  Cs, Symmetry Number:   1  
Rotational constants in cm-1:    26.031085    14.586010     9.348026 

Vibrational entropy computed according to the QRRHO of S. Grimme
Chem.Eur.J. 2012 18 9955


-------
ENTROPY
-------

The entropy contributions are T*S = T*(S(el)+S(vib)+S(rot)+S(trans))
     S(el)   - electronic entropy
     S(vib)  - vibrational entropy
     S(rot)  - rotational entropy
     S(trans)- translational entropy
The entropies will be listed as mutliplied by the temperature to get
units of energy

Electronic entropy                ...      0.00000000 Eh      0.00 kcal/mol
Vibrational entropy               ...      0.00000310 Eh      0.00 kcal/mol
Rotational entropy                ...      0.00565170 Eh      3.55 kcal/mol
Translational entropy             ...      0.01644380 Eh     10.32 kcal/mol
-----------------------------------------------------------------------
Final entropy term                ...      0.02209860 Eh     13.87 kcal/mol

In case the symmetry of your molecule has not been determined correctly
or in case you have a reason to use a different symmetry number we print 
out the resulting rotational entropy values for sn=1,12 :
 --------------------------------------------------------
|  sn= 1 | S(rot)=       0.00565170 Eh      3.55 kcal/mol|
|  sn= 2 | S(rot)=       0.00499724 Eh      3.14 kcal/mol|
|  sn= 3 | S(rot)=       0.00461441 Eh      2.90 kcal/mol|
|  sn= 4 | S(rot)=       0.00434278 Eh      2.73 kcal/mol|
|  sn= 5 | S(rot)=       0.00413210 Eh      2.59 kcal/mol|
|  sn= 6 | S(rot)=       0.00395995 Eh      2.48 kcal/mol|
|  sn= 7 | S(rot)=       0.00381441 Eh      2.39 kcal/mol|
|  sn= 8 | S(rot)=       0.00368833 Eh      2.31 kcal/mol|
|  sn= 9 | S(rot)=       0.00357712 Eh      2.24 kcal/mol|
|  sn=10 | S(rot)=       0.00347764 Eh      2.18 kcal/mol|
|  sn=11 | S(rot)=       0.00338765 Eh      2.13 kcal/mol|
|  sn=12 | S(rot)=       0.00330550 Eh      2.07 kcal/mol|
 --------------------------------------------------------


-------------------
GIBBS FREE ENERGY
-------------------

The Gibbs free energy is G = H - T*S

Total enthalpy                    ...    -76.29618373 Eh 
Total entropy correction          ...     -0.02209860 Eh    -13.87 kcal/mol
-----------------------------------------------------------------------
Final Gibbs free energy         ...    -76.31828233 Eh

For completeness - the Gibbs free energy minus the electronic energy
G-E(el)                           ...      0.00289136 Eh      1.81 kcal/mol


Timings for individual modules:

Sum of individual times         ...       25.470 sec (=   0.425 min)
GTO integral calculation        ...        2.692 sec (=   0.045 min)  10.6 %
SCF iterations                  ...       15.123 sec (=   0.252 min)  59.4 %
SCF Gradient evaluation         ...        2.134 sec (=   0.036 min)   8.4 %
Geometry relaxation             ...        0.309 sec (=   0.005 min)   1.2 %
Analytical frequency calculation...        5.212 sec (=   0.087 min)  20.5 %
                             ****ORCA TERMINATED NORMALLY****
TOTAL RUN TIME: 0 days 0 hours 0 minutes 26 seconds 300 msec
