 Entering Link 1 = C:\G09W\l1.exe PID=      9444.
  
 Copyright (c) 1988,1990,1992,1993,1995,1998,2003,2009,2013,
            Gaussian, Inc.  All Rights Reserved.
  
 This is part of the Gaussian(R) 09 program.  It is based on
 the Gaussian(R) 03 system (copyright 2003, Gaussian, Inc.),
 the Gaussian(R) 98 system (copyright 1998, Gaussian, Inc.),
 the Gaussian(R) 94 system (copyright 1995, Gaussian, Inc.),
 the Gaussian 92(TM) system (copyright 1992, Gaussian, Inc.),
 the Gaussian 90(TM) system (copyright 1990, Gaussian, Inc.),
 the Gaussian 88(TM) system (copyright 1988, Gaussian, Inc.),
 the Gaussian 86(TM) system (copyright 1986, Carnegie Mellon
 University), and the Gaussian 82(TM) system (copyright 1983,
 Carnegie Mellon University). Gaussian is a federally registered
 trademark of Gaussian, Inc.
  
 This software contains proprietary and confidential information,
 including trade secrets, belonging to Gaussian, Inc.
  
 This software is provided under written license and may be
 used, copied, transmitted, or stored only in accord with that
 written license.
  
 The following legend is applicable only to US Government
 contracts under FAR:
  
                    RESTRICTED RIGHTS LEGEND
  
 Use, reproduction and disclosure by the US Government is
 subject to restrictions as set forth in subparagraphs (a)
 and (c) of the Commercial Computer Software - Restricted
 Rights clause in FAR 52.227-19.
  
 Gaussian, Inc.
 340 Quinnipiac St., Bldg. 40, Wallingford CT 06492
  
  
 ---------------------------------------------------------------
 Warning -- This program may not be used in any manner that
 competes with the business of Gaussian, Inc. or will provide
 assistance to any competitor of Gaussian, Inc.  The licensee
 of this program is prohibited from giving any competitor of
 Gaussian, Inc. access to this program.  By using this program,
 the user acknowledges that Gaussian, Inc. is engaged in the
 business of creating and licensing software in the field of
 computational chemistry and represents and warrants to the
 licensee that it is not a competitor of Gaussian, Inc. and that
 it will not use this program in any manner prohibited above.
 ---------------------------------------------------------------
  

 Cite this work as:
 Gaussian 09, Revision D.01,
 M. J. Frisch, G. W. Trucks, H. B. Schlegel, G. E. Scuseria, 
 M. A. Robb, J. R. Cheeseman, G. Scalmani, V. Barone, B. Mennucci, 
 G. A. Petersson, H. Nakatsuji, M. Caricato, X. Li, H. P. Hratchian, 
 A. F. Izmaylov, J. Bloino, G. Zheng, J. L. Sonnenberg, M. Hada, 
 M. Ehara, K. Toyota, R. Fukuda, J. Hasegawa, M. Ishida, T. Nakajima, 
 Y. Honda, O. Kitao, H. Nakai, T. Vreven, J. A. Montgomery, Jr., 
 J. E. Peralta, F. Ogliaro, M. Bearpark, J. J. Heyd, E. Brothers, 
 K. N. Kudin, V. N. Staroverov, T. Keith, R. Kobayashi, J. Normand, 
 K. Raghavachari, A. Rendell, J. C. Burant, S. S. Iyengar, J. Tomasi, 
 M. Cossi, N. Rega, J. M. Millam, M. Klene, J. E. Knox, J. B. Cross, 
 V. Bakken, C. Adamo, J. Jaramillo, R. Gomperts, R. E. Stratmann, 
 O. Yazyev, A. J. Austin, R. Cammi, C. Pomelli, J. W. Ochterski, 
 R. L. Martin, K. Morokuma, V. G. Zakrzewski, G. A. Voth, 
 P. Salvador, J. J. Dannenberg, S. Dapprich, A. D. Daniels, 
 O. Farkas, J. B. Foresman, J. V. Ortiz, J. Cioslowski, 
 and D. J. Fox, Gaussian, Inc., Wallingford CT, 2013.
 
 ******************************************
 Gaussian 09:  IA32W-G09RevD.01 24-Apr-2013
                15-Dec-2023 
 ******************************************
 %chk=D:\DFT\Curcumin\Curcumin_Optimization.chk
 -----------------------------------
 # opt b3lyp/6-31g geom=connectivity
 -----------------------------------
 1/14=-1,18=20,19=15,26=3,38=1,57=2/1,3;
 2/9=110,12=2,17=6,18=5,40=1/2;
 3/5=1,6=6,11=2,16=1,25=1,30=1,71=1,74=-5/1,2,3;
 4//1;
 5/5=2,38=5/2;
 6/7=2,8=2,9=2,10=2,28=1/1;
 7//1,2,3,16;
 1/14=-1,18=20,19=15,26=3/3(2);
 2/9=110/2;
 99//99;
 2/9=110/2;
 3/5=1,6=6,11=2,16=1,25=1,30=1,71=1,74=-5/1,2,3;
 4/5=5,16=3,69=1/1;
 5/5=2,38=5/2;
 7//1,2,3,16;
 1/14=-1,18=20,19=15,26=3/3(-5);
 2/9=110/2;
 6/7=2,8=2,9=2,10=2,19=2,28=1/1;
 99/9=1/99;
 ------------
 OPtimization
 ------------
 Symbolic Z-matrix:
 Charge =  0 Multiplicity = 1
 O                     7.4029   -1.3263    0.7759 
 O                    -7.3871   -1.1972   -1.0249 
 O                     6.3135   -3.3404   -0.7995 
 O                    -7.4431   -1.9508    1.6498 
 O                     2.0774    3.9183    0.0082 
 O                    -0.7337    2.0147   -1.5497 
 C                     4.2152    0.1624   -0.1618 
 C                    -4.1499    0.0187    0.1151 
 C                     0.0325    2.7881    0.6005 
 C                     5.4636    0.009     0.419 
 C                    -5.2198   -0.2584   -0.7203 
 C                     6.1754   -1.1716    0.2058 
 C                    -6.3336   -0.9225   -0.2061 
 C                     3.6591   -0.8321   -0.9499 
 C                    -4.1632   -0.35      1.4506 
 C                     3.4633    1.4098    0.0623 
 C                    -2.9736    0.7211   -0.4274 
 C                     5.6288   -2.1824   -0.5851 
 C                    -6.3619   -1.3004    1.1364 
 C                     1.475     2.8559    0.1393 
 C                    -0.9161    2.0663   -0.3361 
 C                     4.3707   -2.0125   -1.1631 
 C                    -5.2767   -1.014     1.9646 
 C                     2.1398    1.5414   -0.1041 
 C                    -2.0693    1.3763    0.3142 
 C                     7.8896   -0.246     1.5698 
 C                    -7.2788   -0.7771   -2.3836 
 H                    -0.3396    3.8125    0.7159 
 H                     0.0292    2.3169    1.5899 
 H                     5.8387    0.8262    1.0258 
 H                    -5.1448    0.0602   -1.7545 
 H                     2.6936   -0.7339   -1.4362 
 H                    -3.3333   -0.1676    2.1258 
 H                     4.0582    2.2679    0.3672 
 H                    -2.8704    0.6886   -1.5096 
 H                     3.9419   -2.7946   -1.7839 
 H                    -5.2841   -1.3074    3.0111 
 H                     1.4908    0.7093   -0.3479 
 H                    -2.1353    1.4686    1.3916 
 H                     7.1616   -3.2862   -0.3257 
 H                    -7.2855   -2.1323    2.5922 
 H                     7.2578   -0.0732    2.4478 
 H                     8.0337    0.6611    0.9731 
 H                     8.8763   -0.54      1.9427 
 H                    -6.4576   -1.286    -2.8996 
 H                    -7.2124    0.3132   -2.4653 
 H                    -8.2037   -1.0768   -2.8876 
 

 GradGradGradGradGradGradGradGradGradGradGradGradGradGradGradGradGradGrad
 Berny optimization.
 Initialization pass.
                           ----------------------------
                           !    Initial Parameters    !
                           ! (Angstroms and Degrees)  !
 --------------------------                            --------------------------
 ! Name  Definition              Value          Derivative Info.                !
 --------------------------------------------------------------------------------
 ! R1    R(1,12)                 1.3622         estimate D2E/DX2                !
 ! R2    R(1,26)                 1.4263         estimate D2E/DX2                !
 ! R3    R(2,13)                 1.3623         estimate D2E/DX2                !
 ! R4    R(2,27)                 1.4263         estimate D2E/DX2                !
 ! R5    R(3,18)                 1.3623         estimate D2E/DX2                !
 ! R6    R(3,40)                 0.973          estimate D2E/DX2                !
 ! R7    R(4,19)                 1.3622         estimate D2E/DX2                !
 ! R8    R(4,41)                 0.9726         estimate D2E/DX2                !
 ! R9    R(5,20)                 1.2283         estimate D2E/DX2                !
 ! R10   R(6,21)                 1.2283         estimate D2E/DX2                !
 ! R11   R(7,10)                 1.3854         estimate D2E/DX2                !
 ! R12   R(7,14)                 1.3854         estimate D2E/DX2                !
 ! R13   R(7,16)                 1.4736         estimate D2E/DX2                !
 ! R14   R(8,11)                 1.3854         estimate D2E/DX2                !
 ! R15   R(8,15)                 1.3855         estimate D2E/DX2                !
 ! R16   R(8,17)                 1.4736         estimate D2E/DX2                !
 ! R17   R(9,20)                 1.516          estimate D2E/DX2                !
 ! R18   R(9,21)                 1.5159         estimate D2E/DX2                !
 ! R19   R(9,28)                 1.096          estimate D2E/DX2                !
 ! R20   R(9,29)                 1.0959         estimate D2E/DX2                !
 ! R21   R(10,12)                1.395          estimate D2E/DX2                !
 ! R22   R(10,30)                1.0848         estimate D2E/DX2                !
 ! R23   R(11,13)                1.395          estimate D2E/DX2                !
 ! R24   R(11,31)                1.0848         estimate D2E/DX2                !
 ! R25   R(12,18)                1.395          estimate D2E/DX2                !
 ! R26   R(13,19)                1.395          estimate D2E/DX2                !
 ! R27   R(14,22)                1.3947         estimate D2E/DX2                !
 ! R28   R(14,32)                1.0855         estimate D2E/DX2                !
 ! R29   R(15,23)                1.3946         estimate D2E/DX2                !
 ! R30   R(15,33)                1.0853         estimate D2E/DX2                !
 ! R31   R(16,24)                1.3404         estimate D2E/DX2                !
 ! R32   R(16,34)                1.0878         estimate D2E/DX2                !
 ! R33   R(17,25)                1.3405         estimate D2E/DX2                !
 ! R34   R(17,35)                1.0876         estimate D2E/DX2                !
 ! R35   R(18,22)                1.3949         estimate D2E/DX2                !
 ! R36   R(19,23)                1.3948         estimate D2E/DX2                !
 ! R37   R(20,24)                1.493          estimate D2E/DX2                !
 ! R38   R(21,25)                1.4929         estimate D2E/DX2                !
 ! R39   R(22,36)                1.0867         estimate D2E/DX2                !
 ! R40   R(23,37)                1.0869         estimate D2E/DX2                !
 ! R41   R(24,38)                1.0831         estimate D2E/DX2                !
 ! R42   R(25,39)                1.0834         estimate D2E/DX2                !
 ! R43   R(26,42)                1.0954         estimate D2E/DX2                !
 ! R44   R(26,43)                1.0953         estimate D2E/DX2                !
 ! R45   R(26,44)                1.095          estimate D2E/DX2                !
 ! R46   R(27,45)                1.0953         estimate D2E/DX2                !
 ! R47   R(27,46)                1.0954         estimate D2E/DX2                !
 ! R48   R(27,47)                1.0951         estimate D2E/DX2                !
 ! A1    A(12,1,26)            117.028          estimate D2E/DX2                !
 ! A2    A(13,2,27)            117.0304         estimate D2E/DX2                !
 ! A3    A(18,3,40)            108.3075         estimate D2E/DX2                !
 ! A4    A(19,4,41)            109.007          estimate D2E/DX2                !
 ! A5    A(10,7,14)            121.3789         estimate D2E/DX2                !
 ! A6    A(10,7,16)            119.3242         estimate D2E/DX2                !
 ! A7    A(14,7,16)            119.2969         estimate D2E/DX2                !
 ! A8    A(11,8,15)            121.3717         estimate D2E/DX2                !
 ! A9    A(11,8,17)            119.3287         estimate D2E/DX2                !
 ! A10   A(15,8,17)            119.2995         estimate D2E/DX2                !
 ! A11   A(20,9,21)            115.3891         estimate D2E/DX2                !
 ! A12   A(20,9,28)            108.2578         estimate D2E/DX2                !
 ! A13   A(20,9,29)            107.2635         estimate D2E/DX2                !
 ! A14   A(21,9,28)            107.3164         estimate D2E/DX2                !
 ! A15   A(21,9,29)            110.5603         estimate D2E/DX2                !
 ! A16   A(28,9,29)            107.8067         estimate D2E/DX2                !
 ! A17   A(7,10,12)            119.3037         estimate D2E/DX2                !
 ! A18   A(7,10,30)            117.5605         estimate D2E/DX2                !
 ! A19   A(12,10,30)           123.1357         estimate D2E/DX2                !
 ! A20   A(8,11,13)            119.3109         estimate D2E/DX2                !
 ! A21   A(8,11,31)            117.565          estimate D2E/DX2                !
 ! A22   A(13,11,31)           123.124          estimate D2E/DX2                !
 ! A23   A(1,12,10)            119.4683         estimate D2E/DX2                !
 ! A24   A(1,12,18)            120.5346         estimate D2E/DX2                !
 ! A25   A(10,12,18)           119.9971         estimate D2E/DX2                !
 ! A26   A(2,13,11)            119.4661         estimate D2E/DX2                !
 ! A27   A(2,13,19)            120.5399         estimate D2E/DX2                !
 ! A28   A(11,13,19)           119.994          estimate D2E/DX2                !
 ! A29   A(7,14,22)            119.3207         estimate D2E/DX2                !
 ! A30   A(7,14,32)            123.1563         estimate D2E/DX2                !
 ! A31   A(22,14,32)           117.5095         estimate D2E/DX2                !
 ! A32   A(8,15,23)            119.3152         estimate D2E/DX2                !
 ! A33   A(8,15,33)            123.2026         estimate D2E/DX2                !
 ! A34   A(23,15,33)           117.4681         estimate D2E/DX2                !
 ! A35   A(7,16,24)            124.6133         estimate D2E/DX2                !
 ! A36   A(7,16,34)            115.5528         estimate D2E/DX2                !
 ! A37   A(24,16,34)           119.8255         estimate D2E/DX2                !
 ! A38   A(8,17,25)            124.5979         estimate D2E/DX2                !
 ! A39   A(8,17,35)            115.3302         estimate D2E/DX2                !
 ! A40   A(25,17,35)           120.0705         estimate D2E/DX2                !
 ! A41   A(3,18,12)            120.5463         estimate D2E/DX2                !
 ! A42   A(3,18,22)            119.449          estimate D2E/DX2                !
 ! A43   A(12,18,22)           120.0047         estimate D2E/DX2                !
 ! A44   A(4,19,13)            120.5417         estimate D2E/DX2                !
 ! A45   A(4,19,23)            119.457          estimate D2E/DX2                !
 ! A46   A(13,19,23)           120.0013         estimate D2E/DX2                !
 ! A47   A(5,20,9)             122.5352         estimate D2E/DX2                !
 ! A48   A(5,20,24)            121.7174         estimate D2E/DX2                !
 ! A49   A(9,20,24)            115.7165         estimate D2E/DX2                !
 ! A50   A(6,21,9)             122.5147         estimate D2E/DX2                !
 ! A51   A(6,21,25)            121.7123         estimate D2E/DX2                !
 ! A52   A(9,21,25)            115.7405         estimate D2E/DX2                !
 ! A53   A(14,22,18)           119.9949         estimate D2E/DX2                !
 ! A54   A(14,22,36)           119.6773         estimate D2E/DX2                !
 ! A55   A(18,22,36)           120.3273         estimate D2E/DX2                !
 ! A56   A(15,23,19)           120.0069         estimate D2E/DX2                !
 ! A57   A(15,23,37)           119.2636         estimate D2E/DX2                !
 ! A58   A(19,23,37)           120.7288         estimate D2E/DX2                !
 ! A59   A(16,24,20)           120.3885         estimate D2E/DX2                !
 ! A60   A(16,24,38)           122.9691         estimate D2E/DX2                !
 ! A61   A(20,24,38)           116.5064         estimate D2E/DX2                !
 ! A62   A(17,25,21)           120.3976         estimate D2E/DX2                !
 ! A63   A(17,25,39)           123.4162         estimate D2E/DX2                !
 ! A64   A(21,25,39)           116.1594         estimate D2E/DX2                !
 ! A65   A(1,26,42)            111.6431         estimate D2E/DX2                !
 ! A66   A(1,26,43)            111.6508         estimate D2E/DX2                !
 ! A67   A(1,26,44)            107.0785         estimate D2E/DX2                !
 ! A68   A(42,26,43)           112.4515         estimate D2E/DX2                !
 ! A69   A(42,26,44)           106.8051         estimate D2E/DX2                !
 ! A70   A(43,26,44)           106.818          estimate D2E/DX2                !
 ! A71   A(2,27,45)            111.6461         estimate D2E/DX2                !
 ! A72   A(2,27,46)            111.6437         estimate D2E/DX2                !
 ! A73   A(2,27,47)            107.0785         estimate D2E/DX2                !
 ! A74   A(45,27,46)           112.4512         estimate D2E/DX2                !
 ! A75   A(45,27,47)           106.8135         estimate D2E/DX2                !
 ! A76   A(46,27,47)           106.8144         estimate D2E/DX2                !
 ! D1    D(26,1,12,10)          -0.0448         estimate D2E/DX2                !
 ! D2    D(26,1,12,18)        -179.9998         estimate D2E/DX2                !
 ! D3    D(12,1,26,42)          63.4726         estimate D2E/DX2                !
 ! D4    D(12,1,26,43)         -63.3661         estimate D2E/DX2                !
 ! D5    D(12,1,26,44)        -179.9566         estimate D2E/DX2                !
 ! D6    D(27,2,13,11)          -0.0444         estimate D2E/DX2                !
 ! D7    D(27,2,13,19)         179.9977         estimate D2E/DX2                !
 ! D8    D(13,2,27,45)          63.4087         estimate D2E/DX2                !
 ! D9    D(13,2,27,46)         -63.4264         estimate D2E/DX2                !
 ! D10   D(13,2,27,47)         179.9912         estimate D2E/DX2                !
 ! D11   D(40,3,18,12)          -0.0317         estimate D2E/DX2                !
 ! D12   D(40,3,18,22)        -179.9799         estimate D2E/DX2                !
 ! D13   D(41,4,19,13)         179.9946         estimate D2E/DX2                !
 ! D14   D(41,4,19,23)           0.0613         estimate D2E/DX2                !
 ! D15   D(14,7,10,12)          -0.0046         estimate D2E/DX2                !
 ! D16   D(14,7,10,30)        -179.8892         estimate D2E/DX2                !
 ! D17   D(16,7,10,12)        -179.9547         estimate D2E/DX2                !
 ! D18   D(16,7,10,30)           0.1607         estimate D2E/DX2                !
 ! D19   D(10,7,14,22)           0.0049         estimate D2E/DX2                !
 ! D20   D(10,7,14,32)        -178.6248         estimate D2E/DX2                !
 ! D21   D(16,7,14,22)         179.9549         estimate D2E/DX2                !
 ! D22   D(16,7,14,32)           1.3252         estimate D2E/DX2                !
 ! D23   D(10,7,16,24)        -160.0449         estimate D2E/DX2                !
 ! D24   D(10,7,16,34)          21.0217         estimate D2E/DX2                !
 ! D25   D(14,7,16,24)          20.004          estimate D2E/DX2                !
 ! D26   D(14,7,16,34)        -158.9294         estimate D2E/DX2                !
 ! D27   D(15,8,11,13)          -0.0026         estimate D2E/DX2                !
 ! D28   D(15,8,11,31)         179.8631         estimate D2E/DX2                !
 ! D29   D(17,8,11,13)        -179.9536         estimate D2E/DX2                !
 ! D30   D(17,8,11,31)          -0.0878         estimate D2E/DX2                !
 ! D31   D(11,8,15,23)           0.0066         estimate D2E/DX2                !
 ! D32   D(11,8,15,33)         178.6051         estimate D2E/DX2                !
 ! D33   D(17,8,15,23)         179.9575         estimate D2E/DX2                !
 ! D34   D(17,8,15,33)          -1.4439         estimate D2E/DX2                !
 ! D35   D(11,8,17,25)         159.9551         estimate D2E/DX2                !
 ! D36   D(11,8,17,35)         -19.617          estimate D2E/DX2                !
 ! D37   D(15,8,17,25)         -19.9969         estimate D2E/DX2                !
 ! D38   D(15,8,17,35)         160.4311         estimate D2E/DX2                !
 ! D39   D(21,9,20,5)          123.6623         estimate D2E/DX2                !
 ! D40   D(21,9,20,24)         -58.3289         estimate D2E/DX2                !
 ! D41   D(28,9,20,5)            3.43           estimate D2E/DX2                !
 ! D42   D(28,9,20,24)        -178.5612         estimate D2E/DX2                !
 ! D43   D(29,9,20,5)         -112.6568         estimate D2E/DX2                !
 ! D44   D(29,9,20,24)          65.352          estimate D2E/DX2                !
 ! D45   D(20,9,21,6)          -28.3444         estimate D2E/DX2                !
 ! D46   D(20,9,21,25)         149.6141         estimate D2E/DX2                !
 ! D47   D(28,9,21,6)           92.4009         estimate D2E/DX2                !
 ! D48   D(28,9,21,25)         -89.6406         estimate D2E/DX2                !
 ! D49   D(29,9,21,6)         -150.2726         estimate D2E/DX2                !
 ! D50   D(29,9,21,25)          27.6858         estimate D2E/DX2                !
 ! D51   D(7,10,12,1)         -179.9629         estimate D2E/DX2                !
 ! D52   D(7,10,12,18)          -0.0076         estimate D2E/DX2                !
 ! D53   D(30,10,12,1)          -0.085          estimate D2E/DX2                !
 ! D54   D(30,10,12,18)        179.8702         estimate D2E/DX2                !
 ! D55   D(8,11,13,2)         -179.9653         estimate D2E/DX2                !
 ! D56   D(8,11,13,19)          -0.0072         estimate D2E/DX2                !
 ! D57   D(31,11,13,2)           0.1768         estimate D2E/DX2                !
 ! D58   D(31,11,13,19)       -179.8652         estimate D2E/DX2                !
 ! D59   D(1,12,18,3)            0.0264         estimate D2E/DX2                !
 ! D60   D(1,12,18,22)         179.9743         estimate D2E/DX2                !
 ! D61   D(10,12,18,3)        -179.9284         estimate D2E/DX2                !
 ! D62   D(10,12,18,22)          0.0195         estimate D2E/DX2                !
 ! D63   D(2,13,19,4)            0.0377         estimate D2E/DX2                !
 ! D64   D(2,13,19,23)         179.9707         estimate D2E/DX2                !
 ! D65   D(11,13,19,4)        -179.9199         estimate D2E/DX2                !
 ! D66   D(11,13,19,23)          0.0131         estimate D2E/DX2                !
 ! D67   D(7,14,22,18)           0.0071         estimate D2E/DX2                !
 ! D68   D(7,14,22,36)        -179.7293         estimate D2E/DX2                !
 ! D69   D(32,14,22,18)        178.7137         estimate D2E/DX2                !
 ! D70   D(32,14,22,36)         -1.0227         estimate D2E/DX2                !
 ! D71   D(8,15,23,19)          -0.0007         estimate D2E/DX2                !
 ! D72   D(8,15,23,37)         179.6863         estimate D2E/DX2                !
 ! D73   D(33,15,23,19)       -178.679          estimate D2E/DX2                !
 ! D74   D(33,15,23,37)          1.0079         estimate D2E/DX2                !
 ! D75   D(7,16,24,20)        -179.4803         estimate D2E/DX2                !
 ! D76   D(7,16,24,38)           4.9083         estimate D2E/DX2                !
 ! D77   D(34,16,24,20)         -0.5895         estimate D2E/DX2                !
 ! D78   D(34,16,24,38)       -176.201          estimate D2E/DX2                !
 ! D79   D(8,17,25,21)        -179.5087         estimate D2E/DX2                !
 ! D80   D(8,17,25,39)          -1.4659         estimate D2E/DX2                !
 ! D81   D(35,17,25,21)          0.0443         estimate D2E/DX2                !
 ! D82   D(35,17,25,39)        178.0871         estimate D2E/DX2                !
 ! D83   D(3,18,22,14)         179.9292         estimate D2E/DX2                !
 ! D84   D(3,18,22,36)          -0.3361         estimate D2E/DX2                !
 ! D85   D(12,18,22,14)         -0.0193         estimate D2E/DX2                !
 ! D86   D(12,18,22,36)        179.7154         estimate D2E/DX2                !
 ! D87   D(4,19,23,15)         179.9246         estimate D2E/DX2                !
 ! D88   D(4,19,23,37)           0.2423         estimate D2E/DX2                !
 ! D89   D(13,19,23,15)         -0.0091         estimate D2E/DX2                !
 ! D90   D(13,19,23,37)       -179.6914         estimate D2E/DX2                !
 ! D91   D(5,20,24,16)          27.3052         estimate D2E/DX2                !
 ! D92   D(5,20,24,38)        -156.8086         estimate D2E/DX2                !
 ! D93   D(9,20,24,16)        -150.7214         estimate D2E/DX2                !
 ! D94   D(9,20,24,38)          25.1648         estimate D2E/DX2                !
 ! D95   D(6,21,25,17)          -2.7265         estimate D2E/DX2                !
 ! D96   D(6,21,25,39)         179.0935         estimate D2E/DX2                !
 ! D97   D(9,21,25,17)         179.2971         estimate D2E/DX2                !
 ! D98   D(9,21,25,39)           1.1172         estimate D2E/DX2                !
 --------------------------------------------------------------------------------
 Trust Radius=3.00D-01 FncErr=1.00D-07 GrdErr=1.00D-06
 Number of steps in this run=    232 maximum allowed number of steps=    282.
 GradGradGradGradGradGradGradGradGradGradGradGradGradGradGradGradGradGrad

                          Input orientation:                          
 ---------------------------------------------------------------------
 Center     Atomic      Atomic             Coordinates (Angstroms)
 Number     Number       Type             X           Y           Z
 ---------------------------------------------------------------------
      1          8           0        7.402900   -1.326300    0.775900
      2          8           0       -7.387100   -1.197200   -1.024900
      3          8           0        6.313500   -3.340400   -0.799500
      4          8           0       -7.443100   -1.950800    1.649800
      5          8           0        2.077400    3.918300    0.008200
      6          8           0       -0.733700    2.014700   -1.549700
      7          6           0        4.215200    0.162400   -0.161800
      8          6           0       -4.149900    0.018700    0.115100
      9          6           0        0.032500    2.788100    0.600500
     10          6           0        5.463600    0.009000    0.419000
     11          6           0       -5.219800   -0.258400   -0.720300
     12          6           0        6.175400   -1.171600    0.205800
     13          6           0       -6.333600   -0.922500   -0.206100
     14          6           0        3.659100   -0.832100   -0.949900
     15          6           0       -4.163200   -0.350000    1.450600
     16          6           0        3.463300    1.409800    0.062300
     17          6           0       -2.973600    0.721100   -0.427400
     18          6           0        5.628800   -2.182400   -0.585100
     19          6           0       -6.361900   -1.300400    1.136400
     20          6           0        1.475000    2.855900    0.139300
     21          6           0       -0.916100    2.066300   -0.336100
     22          6           0        4.370700   -2.012500   -1.163100
     23          6           0       -5.276700   -1.014000    1.964600
     24          6           0        2.139800    1.541400   -0.104100
     25          6           0       -2.069300    1.376300    0.314200
     26          6           0        7.889600   -0.246000    1.569800
     27          6           0       -7.278800   -0.777100   -2.383600
     28          1           0       -0.339600    3.812500    0.715900
     29          1           0        0.029200    2.316900    1.589900
     30          1           0        5.838700    0.826200    1.025800
     31          1           0       -5.144800    0.060200   -1.754500
     32          1           0        2.693600   -0.733900   -1.436200
     33          1           0       -3.333300   -0.167600    2.125800
     34          1           0        4.058200    2.267900    0.367200
     35          1           0       -2.870400    0.688600   -1.509600
     36          1           0        3.941900   -2.794600   -1.783900
     37          1           0       -5.284100   -1.307400    3.011100
     38          1           0        1.490800    0.709300   -0.347900
     39          1           0       -2.135300    1.468600    1.391600
     40          1           0        7.161600   -3.286200   -0.325700
     41          1           0       -7.285500   -2.132300    2.592200
     42          1           0        7.257800   -0.073200    2.447800
     43          1           0        8.033700    0.661100    0.973100
     44          1           0        8.876300   -0.540000    1.942700
     45          1           0       -6.457600   -1.286000   -2.899600
     46          1           0       -7.212400    0.313200   -2.465300
     47          1           0       -8.203700   -1.076800   -2.887600
 ---------------------------------------------------------------------
                    Distance matrix (angstroms):
                    1          2          3          4          5
     1  O    0.000000
     2  O   14.899787   0.000000
     3  O    2.779438  13.869050   0.000000
     4  O   14.884805   2.779401  14.041870   0.000000
     5  O    7.513730  10.807978   8.443083  11.304031   0.000000
     6  O    9.098074   7.406716   8.882732   8.424847   3.735375
     7  C    3.641008  11.713531   4.132691  11.985970   4.325029
     8  C   11.649587   3.641082  11.027365   4.132723   7.348304
     9  C    8.442858   8.577587   8.886477   8.913069   2.410350
    10  C    2.381447  12.987696   3.664090  13.112536   5.188230
    11  C   12.755845   2.381452  11.938258   3.663967   8.439471
    12  C    1.362242  13.618248   2.394450  13.716991   6.537563
    13  C   13.777475   1.362261  12.889822   2.394317   9.706915
    14  C    4.151946  11.052486   3.655137  11.457259   5.097650
    15  C   11.626825   4.152033  11.125048   3.655131   7.697012
    16  C    4.849321  11.212031   5.606312  11.522298   2.866395
    17  C   10.644789   4.849316  10.143198   5.606268   5.993700
    18  C    2.394297  13.060540   1.362257  13.263596   7.083995
    19  C   13.769544   2.394348  12.983646   1.362202   9.986463
    20  C    7.282586   9.814265   7.917485  10.242972   1.228319
    21  C    9.052737   7.280022   9.039594   7.917236   3.536876
    22  C    3.663991  11.786843   2.381175  12.144220   6.465722
    23  C   12.739026   3.663941  12.140227   2.381172   9.068510
    24  C    6.057914   9.955382   6.460288  10.349087   2.380369
    25  C    9.861024   6.057647   9.682919   6.459965   4.873451
    26  C    1.426255  15.524652   4.203925  15.427392   7.318583
    27  C   15.027853   1.426281  13.922302   4.203913  10.738062
    28  H    9.292856   8.820132   9.885553   9.194972   2.520699
    29  H    8.264802   8.613221   8.786734   8.605354   3.043252
    30  H    2.672532  13.535926   4.573588  13.583347   4.974331
    31  H   12.875173   2.672317  11.990360   4.573354   8.375692
    32  H    5.236586  10.099719   4.505875  10.665689   4.910087
    33  H   10.882592   5.236438  10.568102   4.505201   7.103132
    34  H    4.926695  12.039093   6.156346  12.317564   2.603127
    35  H   10.715597   4.918511  10.053910   6.152871   6.100443
    36  H    4.548297  11.466212   2.625153  11.921431   7.193817
    37  H   12.882408   4.552367  12.375706   2.632182   9.514044
    38  H    6.352914   9.105503   6.313672   9.533179   3.281553
    39  H    9.958304   6.366111   9.965421   6.319154   5.065735
    40  H    2.261185  14.714533   0.972984  14.798079   8.824137
    41  H   14.822202   3.737398  14.067549   0.972573  11.443370
    42  H    2.094412  15.092916   4.702261  14.841787   6.979990
    43  H    2.094410  15.660343   4.702468  15.710229   6.856959
    44  H    2.037302  16.544991   4.682931  16.382886   8.357259
    45  H   14.339609   2.094363  13.104655   4.702149  10.410872
    46  H   15.059891   2.094416  14.109346   4.702443  10.267197
    47  H   16.032762   2.037396  14.840254   4.682989  11.791425
                    6          7          8          9         10
     6  O    0.000000
     7  C    5.463414   0.000000
     8  C    4.292551   8.370915   0.000000
     9  C    2.410098   4.997037   5.039609   0.000000
    10  C    6.804788   1.385411   9.618307   6.103539   0.000000
    11  C    5.097056   9.460878   1.385411   6.213882  10.747304
    12  C    7.808326   2.399389  10.394078   7.319169   1.394966
    13  C    6.464618  10.604534   2.399494   7.412583  11.850416
    14  C    5.268844   1.385417   7.927078   5.353673   2.416104
    15  C    5.133720   8.547513   1.385524   5.307941   9.688568
    16  C    4.536437   1.473629   7.739429   3.736276   2.467929
    17  C    2.819594   7.215368   1.473551   3.790212   8.509396
    18  C    7.682936   2.770476  10.047791   7.578264   2.416142
    19  C    7.062695  10.756400   2.770564   7.608638  11.919381
    20  C    2.904943   3.854128   6.299983   1.515951   4.908360
    21  C    1.228315   5.475898   3.854051   1.515934   6.745608
    22  C    6.513271   2.399369   8.852129   6.706417   2.789970
    23  C    6.493241   9.798044   2.399333   6.671157  10.899057
    24  C    3.251273   2.492440   6.475105   2.547830   3.697233
    25  C    2.380232   6.418339   2.492311   2.548080   7.656701
    26  C    9.444752   4.082456  12.129954   8.478168   2.697191
    27  C    7.164347  11.744407   4.082501   8.664330  13.070627
    28  H    2.918963   5.902524   5.410385   1.095979   6.944918
    29  H    3.245062   5.023238   4.992157   1.095880   6.019146
    30  H    7.158364   2.118201  10.062483   6.143443   1.084768
    31  H    4.829060   9.495090   2.118243   6.308082  10.828891
    32  H    4.394778   2.177778   7.057367   4.861490   3.415636
    33  H    5.002964   7.894420   2.178178   4.731946   8.962690
    34  H    5.167293   2.176608   8.514421   4.065870   2.660914
    35  H    2.515082   7.231817   2.173830   4.157794   8.581195
    36  H    6.711591   3.383748   8.774855   7.220479   3.876663
    37  H    7.248682  10.122465   3.381090   7.130943  11.133955
    38  H    2.845486   2.784975   5.701648   2.710629   4.106299
    39  H    3.303627   6.666938   2.791106   2.658247   7.798696
    40  H    9.588195   4.538830  11.792655   9.411644   3.781022
    41  H    8.790849  12.046421   4.538151   9.040483  13.109062
    42  H    9.176241   4.015337  11.644121   7.987773   2.709601
    43  H    9.223018   4.014678  12.230656   8.287470   2.708814
    44  H   10.539234   5.162184  13.165643   9.544137   3.777510
    45  H    6.743877  11.113149   4.014491   8.424392  12.442071
    46  H    6.760694  11.658426   4.015483   8.246989  13.003565
    47  H    8.194403  12.774767   5.162327   9.743679  14.103463
                   11         12         13         14         15
    11  C    0.000000
    12  C   11.469184   0.000000
    13  C    1.394984  12.518258   0.000000
    14  C    8.900377   2.789743  10.020752   0.000000
    15  C    2.416113  10.445631   2.789811   8.196536   0.000000
    16  C    8.876462   3.746959  10.074270   2.467590   7.949074
    17  C    2.467919   9.364158   3.746998   6.832141   2.467648
    18  C   11.018719   1.394995  12.034534   2.415804  10.167843
    19  C    2.416090  12.572450   1.394961  10.246580   2.415836
    20  C    7.433581   6.190229   8.681581   4.422442   6.617145
    21  C    4.906493   7.814539   6.188629   5.450681   4.424303
    22  C    9.759643   2.416183  10.802129   1.394695   9.078699
    23  C    2.789777  11.587442   2.416061   9.400847   1.394623
    24  C    7.601493   4.872625   8.824948   2.942304   6.761826
    25  C    3.697037   8.630100   4.872314   6.268137   2.942097
    26  C   13.307933   2.378174  14.349596   4.958783  12.053838
    27  C    2.697239  13.706791   2.378245  11.031599   4.958878
    28  H    6.515462   8.218679   7.694046   6.351126   5.699659
    29  H    6.286589   7.201468   7.362374   5.435344   4.970712
    30  H   11.247917   2.185628  12.358819   3.376982  10.079777
    31  H    1.084758  11.554524   2.185518   8.885507   3.377050
    32  H    7.959932   3.874361   9.112577   1.085505   7.449611
    33  H    3.415759   9.752425   3.874201   7.667799   1.085310
    34  H    9.677093   4.042121  10.885625   3.391760   8.695894
    35  H    2.653203   9.393053   4.035903   6.727567   3.393053
    36  H    9.565579   3.403169  10.563149   2.151032   9.062599
    37  H    3.876581  11.798656   3.405873   9.792663   2.146670
    38  H    6.790234   5.078370   7.994005   2.727608   6.026976
    39  H    4.117862   8.800256   5.088784   6.659648   2.724549
    40  H   12.752347   2.393035  13.701161   4.322006  11.833326
    41  H    4.330274  13.704513   3.193777  11.576755   3.772082
    42  H   12.874846   2.721146  13.874100   5.007089  11.467793
    43  H   13.392847   2.720444  14.502331   5.006466  12.248049
    44  H   14.348202   3.272705  15.365699   5.972573  13.050166
    45  H    2.708774  13.009584   2.720744  10.312855   5.006457
    46  H    2.709651  13.732174   2.720887  11.036198   5.007168
    47  H    3.777648  14.708386   3.272847  12.022503   5.972760
                   16         17         18         19         20
    16  C    0.000000
    17  C    6.492133   0.000000
    18  C    4.244104   9.080554   0.000000
    19  C   10.248582   4.244115  12.145714   0.000000
    20  C    2.459771   4.966746   6.569876   8.926704   0.000000
    21  C    4.446219   2.459920   7.806995   6.569601   2.562583
    22  C    3.746614   7.870995   1.394907  10.999249   5.812284
    23  C    9.267208   3.746532  11.260376   1.394847   7.993328
    24  C    1.340395   5.188861   5.125541   9.049507   1.493021
    25  C    5.538433   1.340528   8.528413   5.125149   3.844720
    26  C    4.960480  11.087525   3.674841  14.297022   7.267407
    27  C   11.231993   4.960450  13.107845   3.674908   9.807789
    28  H    4.545570   4.219223   8.558810   7.911173   2.130804
    29  H    3.866450   3.953844   7.505321   7.357763   2.117805
    30  H    2.628963   8.931935   3.419171  12.385043   4.893612
    31  H    8.900650   2.629086  11.066490   3.419045   7.431297
    32  H    2.726424   5.937328   3.382000   9.430868   4.105344
    33  H    7.275988   2.727270   9.577454   3.381504   6.017265
    34  H    1.087753   7.243631   4.814440  11.040965   2.659061
    35  H    6.565573   1.087595   9.018522   4.811238   5.128212
    36  H    4.616762   7.875556   2.158134  10.813375   6.458517
    37  H    9.622661   4.612646  11.523440   2.162453   8.441904
    38  H    2.133007   4.465123   5.053834   8.240567   2.201251
    39  H    5.754548   2.137818   8.804453   5.059312   4.065356
    40  H    5.990024  10.899132   1.906604  13.746497   8.383259
    41  H   11.596705   5.987684  13.299507   1.914275  10.375221
    42  H    4.721031  10.657356   4.037431  13.737613   6.881103
    43  H    4.720028  11.096200   4.036957  14.529537   6.966270
    44  H    6.052949  12.150221   4.430971  15.278451   8.340481
    45  H   10.698806   4.720008  12.338619   4.037160   9.450735
    46  H   11.025510   4.720894  13.215884   4.037239   9.419139
    47  H   12.288368   6.053014  14.066340   4.431117  10.876833
                   21         22         23         24         25
    21  C    0.000000
    22  C    6.728357   0.000000
    23  C    5.813459  10.190772   0.000000
    24  C    3.109320   4.327655   8.112587   0.000000
    25  C    1.492937   7.425630   4.327213   4.233055   0.000000
    26  C    9.301588   4.792903  13.194588   6.249555  10.167993
    27  C    7.263686  11.778229   4.792846   9.964015   6.249332
    28  H    2.118554   7.723224   7.016360   3.460884   3.014680
    29  H    2.160062   6.720962   6.275976   2.815256   2.629799
    30  H    7.001424   3.873567  11.305742   3.933198   7.958985
    31  H    4.890624   9.756566   3.873372   7.614668   3.933235
    32  H    4.699072   2.126515   8.670039   2.694100   5.495640
    33  H    4.110245   8.577420   2.125837   6.152069   2.695036
    34  H    5.027816   4.556457  10.023119   2.104800   6.192255
    35  H    2.663541   7.736248   4.556226   5.273026   2.107354
    36  H    7.023150   1.086712  10.109618   4.987002   7.611370
    37  H    6.454845  10.542119   1.086877   8.540165   4.981009
    38  H    2.763106   4.045562   7.356390   1.083065   3.682062
    39  H    2.197417   7.808494   4.044753   4.529779   1.083359
    40  H    9.690129   3.180043  12.849890   6.969455  10.361365
    41  H    8.171440  12.246780   2.383223  10.469116   6.686427
    42  H    8.896078   5.013465  12.579041   5.942479   9.677195
    43  H    9.153552   5.012889  13.451981   6.055852  10.149693
    44  H   10.386377   5.666982  14.160952   7.341801  11.230778
    45  H    6.965463  10.990692   5.012878   9.472291   6.055867
    46  H    6.873881  11.885824   5.013223   9.723548   5.941993
    47  H    8.336567  12.726546   5.667020  11.026823   7.341668
                   26         27         28         29         30
    26  C    0.000000
    27  C   15.684126   0.000000
    28  H    9.215221   8.878278   0.000000
    29  H    8.267693   8.875156   1.771076   0.000000
    30  H    2.377339  13.647834   6.869164   6.024175   0.000000
    31  H   13.455122   2.377140   6.578190   6.561096  11.355796
    32  H    6.022665  10.017395   5.873805   5.056055   4.288008
    33  H   11.236938   6.022719   5.176027   4.215013   9.291029
    34  H    4.737675  12.056803   4.674187   4.210729   2.383785
    35  H   11.230930   4.727171   4.595275   4.545981   9.071693
    36  H    5.772954  11.416394   8.260388   7.267681   4.960086
    37  H   13.294747   5.776057   7.478596   6.586844  11.498276
    38  H    6.747949   9.124656   3.756579   2.911309   4.561245
    39  H   10.172032   6.763941   3.029022   2.333237   8.008194
    40  H    3.655916  14.800530  10.380004   9.270134   4.526417
    41  H   15.326027   5.157053   9.333096   8.620024  13.544407
    42  H    1.095406  15.334622   8.707389   7.661673   2.201102
    43  H    1.095284  15.741935   8.950398   8.197203   2.201831
    44  H    1.095019  16.726038  10.265579   9.303630   3.454594
    45  H   15.063176   1.095265   8.746226   8.672662  13.079340
    46  H   15.641775   1.095371   8.342692   8.538163  13.519695
    47  H   16.719837   1.095115   9.936525   9.967239  14.701194
                   31         32         33         34         35
    31  H    0.000000
    32  H    7.884949   0.000000
    33  H    4.288374   7.023679   0.000000
    34  H    9.699008   3.758349   7.978634   0.000000
    35  H    2.372290   5.743430   3.763441   7.349970   0.000000
    36  H    9.524645   2.434262   8.666915   5.501787   7.656066
    37  H    4.959907   9.151561   2.426627  10.346572   5.499699
    38  H    6.814033   2.171164   5.491820   3.087417   4.513318
    39  H    4.575874   6.013795   2.156711   6.328327   3.092852
    40  H   12.833057   5.264073  11.219556   6.399940  10.855491
    41  H    5.318219  10.852003   4.438182  12.368990   6.653972
    42  H   13.095862   6.029420  10.596414   4.477397  10.900541
    43  H   13.471219   6.022244  11.455311   4.330534  11.183200
    44  H   14.512780   7.048428  12.216650   5.794876  12.304991
    45  H    2.201579   9.283901   6.022185  11.570836   4.324251
    46  H    2.200958  10.014205   6.029659  11.784326   4.461754
    47  H    3.454498  10.998877   7.048519  13.120020   5.784428
                   36         37         38         39         40
    36  H    0.000000
    37  H   10.503469   0.000000
    38  H    4.510798   7.826189   0.000000
    39  H    8.074097   4.499322   4.092798   0.000000
    40  H    3.568541  13.036308   6.937037  10.582513   0.000000
    41  H   12.068281   2.204890   9.682062   6.397850  14.783921
    42  H    6.025653  12.615063   6.456511   9.577214   4.245577
    43  H    6.023764  13.615882   6.675096  10.209592   4.246012
    44  H    6.581723  14.221368   7.832829  11.206851   3.953157
    45  H   10.567415   6.026104   8.583091   6.684646  14.003870
    46  H   11.599187   6.027905   8.965822   6.479782  14.971488
    47  H   12.316030   6.585735  10.179566   7.849592  15.733316
                   41         42         43         44         45
    41  H    0.000000
    42  H   14.689054   0.000000
    43  H   15.655748   1.820977   0.000000
    44  H   16.253032   1.758571   1.758619   0.000000
    45  H    5.617963  14.770842  15.125699  16.097605   0.000000
    46  H    5.618195  15.286417  15.632888  16.703433   1.820928
    47  H    5.655562  16.386937  16.780300  17.757994   1.758628
                   46         47
    46  H    0.000000
    47  H    1.758725   0.000000
 Stoichiometry    C21H20O6
 Framework group  C1[X(C21H20O6)]
 Deg. of freedom   135
 Full point group                 C1      NOp   1
 Largest Abelian subgroup         C1      NOp   1
 Largest concise Abelian subgroup C1      NOp   1
                         Standard orientation:                         
 ---------------------------------------------------------------------
 Center     Atomic      Atomic             Coordinates (Angstroms)
 Number     Number       Type             X           Y           Z
 ---------------------------------------------------------------------
      1          8           0        7.401293   -1.310257    0.697230
      2          8           0       -7.409365   -1.174664   -0.924395
      3          8           0        6.289077   -3.341696   -0.839489
      4          8           0       -7.434013   -1.894764    1.759989
      5          8           0        2.076276    3.934781   -0.070830
      6          8           0       -0.757095    2.017421   -1.570418
      7          6           0        4.205056    0.172878   -0.220006
      8          6           0       -4.156278    0.049010    0.160742
      9          6           0        0.036736    2.816054    0.560448
     10          6           0        5.460186    0.024285    0.347384
     11          6           0       -5.236812   -0.236384   -0.658013
     12          6           0        6.167194   -1.160271    0.140267
     13          6           0       -6.345437   -0.891844   -0.122007
     14          6           0        3.637567   -0.830275   -0.988783
     15          6           0       -4.153911   -0.302992    1.500804
     16          6           0        3.458205    1.424443   -0.002336
     17          6           0       -2.985434    0.742292   -0.404801
     18          6           0        5.609141   -2.179776   -0.631222
     19          6           0       -6.358000   -1.252929    1.225352
     20          6           0        1.473608    2.875279    0.080866
     21          6           0       -0.924547    2.084497   -0.355421
     22          6           0        4.344375   -2.014631   -1.195900
     23          6           0       -5.262239   -0.958355    2.036605
     24          6           0        2.133009    1.556549   -0.154200
     25          6           0       -2.070952    1.404912    0.317469
     26          6           0        7.899614   -0.221102    1.471582
     27          6           0       -7.316930   -0.771740   -2.289454
     28          1           0       -0.332076    3.842539    0.667583
     29          1           0        0.044685    2.357227    1.555620
     30          1           0        5.844153    0.848247    0.939311
     31          1           0       -5.173889    0.069157   -1.696948
     32          1           0        2.666371   -0.736253   -1.464451
     33          1           0       -3.315489   -0.113817    2.163495
     34          1           0        4.058337    2.285110    0.284544
     35          1           0       -2.895534    0.696107   -1.487690
     36          1           0        3.906605   -2.803565   -1.801607
     37          1           0       -5.257370   -1.238677    3.086699
     38          1           0        1.479576    0.722747   -0.379654
     39          1           0       -2.123606    1.510759    1.394358
     40          1           0        7.143004   -3.283256   -0.376789
     41          1           0       -7.265229   -2.064814    2.702588
     42          1           0        7.278910   -0.036138    2.355002
     43          1           0        8.038043    0.678208    0.861890
     44          1           0        8.890268   -0.512363    1.836053
     45          1           0       -6.503021   -1.288637   -2.809045
     46          1           0       -7.249567    0.317325   -2.385564
     47          1           0       -8.248464   -1.075887   -2.778347
 ---------------------------------------------------------------------
 Rotational constants (GHZ):      0.3175001      0.0504703      0.0469890
 Standard basis: 6-31G (6D, 7F)
 There are   283 symmetry adapted cartesian basis functions of A   symmetry.
 There are   283 symmetry adapted basis functions of A   symmetry.
   283 basis functions,   674 primitive gaussians,   283 cartesian basis functions
    97 alpha electrons       97 beta electrons
       nuclear repulsion energy      2133.1211256546 Hartrees.
 NAtoms=   47 NActive=   47 NUniq=   47 SFac= 1.00D+00 NAtFMM=   60 NAOKFM=F Big=F
 Integral buffers will be    262144 words long.
 Raffenetti 2 integral format.
 Two-electron integral symmetry is turned on.
 One-electron integrals computed using PRISM.
 NBasis=   283 RedAO= T EigKep=  5.30D-04  NBF=   283
 NBsUse=   283 1.00D-06 EigRej= -1.00D+00 NBFU=   283
 ExpMin= 1.61D-01 ExpMax= 5.48D+03 ExpMxC= 8.25D+02 IAcc=1 IRadAn=         1 AccDes= 0.00D+00
 Harris functional with IExCor=  402 and IRadAn=       1 diagonalized for initial guess.
 HarFok:  IExCor=  402 AccDes= 0.00D+00 IRadAn=         1 IDoV= 1 UseB2=F ITyADJ=14
 ICtDFT=  3500011 ScaDFX=  1.000000  1.000000  1.000000  1.000000
 FoFCou: FMM=F IPFlag=           0 FMFlag=      100000 FMFlg1=           0
         NFxFlg=           0 DoJE=T BraDBF=F KetDBF=T FulRan=T
         wScrn=  0.000000 ICntrl=     500 IOpCl=  0 I1Cent=   200000004 NGrid=           0
         NMat0=    1 NMatS0=      1 NMatT0=    0 NMatD0=    1 NMtDS0=    0 NMtDT0=    0
 Petite list used in FoFCou.
 Requested convergence on RMS density matrix=1.00D-08 within 128 cycles.
 Requested convergence on MAX density matrix=1.00D-06.
 Requested convergence on             energy=1.00D-06.
 No special actions if energy rises.
 Integral accuracy reduced to 1.0D-05 until final iterations.
 Initial convergence to 1.0D-05 achieved.  Increase integral accuracy.
 SCF Done:  E(RB3LYP) =  -1263.17610538     A.U. after   16 cycles
            NFock= 16  Conv=0.58D-08     -V/T= 2.0048

 **********************************************************************

            Population analysis using the SCF density.

 **********************************************************************

 Orbital symmetries:
       Occupied  (A) (A) (A) (A) (A) (A) (A) (A) (A) (A) (A) (A)
                 (A) (A) (A) (A) (A) (A) (A) (A) (A) (A) (A) (A)
                 (A) (A) (A) (A) (A) (A) (A) (A) (A) (A) (A) (A)
                 (A) (A) (A) (A) (A) (A) (A) (A) (A) (A) (A) (A)
                 (A) (A) (A) (A) (A) (A) (A) (A) (A) (A) (A) (A)
                 (A) (A) (A) (A) (A) (A) (A) (A) (A) (A) (A) (A)
                 (A) (A) (A) (A) (A) (A) (A) (A) (A) (A) (A) (A)
                 (A) (A) (A) (A) (A) (A) (A) (A) (A) (A) (A) (A)
                 (A)
       Virtual   (A) (A) (A) (A) (A) (A) (A) (A) (A) (A) (A) (A)
                 (A) (A) (A) (A) (A) (A) (A) (A) (A) (A) (A) (A)
                 (A) (A) (A) (A) (A) (A) (A) (A) (A) (A) (A) (A)
                 (A) (A) (A) (A) (A) (A) (A) (A) (A) (A) (A) (A)
                 (A) (A) (A) (A) (A) (A) (A) (A) (A) (A) (A) (A)
                 (A) (A) (A) (A) (A) (A) (A) (A) (A) (A) (A) (A)
                 (A) (A) (A) (A) (A) (A) (A) (A) (A) (A) (A) (A)
                 (A) (A) (A) (A) (A) (A) (A) (A) (A) (A) (A) (A)
                 (A) (A) (A) (A) (A) (A) (A) (A) (A) (A) (A) (A)
                 (A) (A) (A) (A) (A) (A) (A) (A) (A) (A) (A) (A)
                 (A) (A) (A) (A) (A) (A) (A) (A) (A) (A) (A) (A)
                 (A) (A) (A) (A) (A) (A) (A) (A) (A) (A) (A) (A)
                 (A) (A) (A) (A) (A) (A) (A) (A) (A) (A) (A) (A)
                 (A) (A) (A) (A) (A) (A) (A) (A) (A) (A) (A) (A)
                 (A) (A) (A) (A) (A) (A) (A) (A) (A) (A) (A) (A)
                 (A) (A) (A) (A) (A) (A)
 The electronic state is 1-A.
 Alpha  occ. eigenvalues --  -19.19373 -19.18484 -19.18146 -19.17556 -19.13626
 Alpha  occ. eigenvalues --  -19.12947 -10.28091 -10.27289 -10.26604 -10.26148
 Alpha  occ. eigenvalues --  -10.25686 -10.25643 -10.25377 -10.24446 -10.21097
 Alpha  occ. eigenvalues --  -10.20459 -10.20422 -10.20032 -10.19957 -10.19851
 Alpha  occ. eigenvalues --  -10.19536 -10.19401 -10.19387 -10.19321 -10.19053
 Alpha  occ. eigenvalues --  -10.18756 -10.18380  -1.09998  -1.09326  -1.07683
 Alpha  occ. eigenvalues --   -1.07073  -1.05657  -1.04574  -0.88162  -0.87334
 Alpha  occ. eigenvalues --   -0.81592  -0.80738  -0.78398  -0.77345  -0.76864
 Alpha  occ. eigenvalues --   -0.75756  -0.74630  -0.71590  -0.71252  -0.66530
 Alpha  occ. eigenvalues --   -0.64752  -0.63656  -0.62651  -0.60371  -0.58538
 Alpha  occ. eigenvalues --   -0.57131  -0.56696  -0.54765  -0.53542  -0.52926
 Alpha  occ. eigenvalues --   -0.51064  -0.50483  -0.50112  -0.49602  -0.49251
 Alpha  occ. eigenvalues --   -0.48483  -0.48433  -0.47013  -0.46574  -0.46092
 Alpha  occ. eigenvalues --   -0.45689  -0.44245  -0.43410  -0.43234  -0.42912
 Alpha  occ. eigenvalues --   -0.42584  -0.42368  -0.41900  -0.40424  -0.40345
 Alpha  occ. eigenvalues --   -0.39434  -0.38632  -0.38155  -0.37252  -0.36769
 Alpha  occ. eigenvalues --   -0.36393  -0.36004  -0.35808  -0.35467  -0.35418
 Alpha  occ. eigenvalues --   -0.34250  -0.34150  -0.33755  -0.32931  -0.28678
 Alpha  occ. eigenvalues --   -0.27715  -0.25504  -0.25064  -0.24552  -0.23909
 Alpha  occ. eigenvalues --   -0.21442  -0.20821
 Alpha virt. eigenvalues --   -0.07073  -0.05659  -0.00903  -0.00050   0.01251
 Alpha virt. eigenvalues --    0.01875   0.04942   0.05871   0.06905   0.07113
 Alpha virt. eigenvalues --    0.07989   0.09071   0.09497   0.10143   0.11030
 Alpha virt. eigenvalues --    0.11692   0.12440   0.13472   0.13712   0.13920
 Alpha virt. eigenvalues --    0.14367   0.15061   0.15499   0.15784   0.16079
 Alpha virt. eigenvalues --    0.16379   0.16961   0.17528   0.18711   0.19042
 Alpha virt. eigenvalues --    0.19856   0.21116   0.22228   0.22855   0.23776
 Alpha virt. eigenvalues --    0.25264   0.25775   0.26653   0.27937   0.29347
 Alpha virt. eigenvalues --    0.31684   0.32512   0.32762   0.32918   0.33339
 Alpha virt. eigenvalues --    0.34539   0.36227   0.36440   0.36955   0.37221
 Alpha virt. eigenvalues --    0.40875   0.41292   0.43815   0.45085   0.49171
 Alpha virt. eigenvalues --    0.49411   0.50325   0.50904   0.51862   0.52350
 Alpha virt. eigenvalues --    0.53073   0.53803   0.53952   0.54373   0.55740
 Alpha virt. eigenvalues --    0.56001   0.56429   0.56977   0.57466   0.58260
 Alpha virt. eigenvalues --    0.59478   0.59679   0.60492   0.60713   0.60877
 Alpha virt. eigenvalues --    0.61094   0.61421   0.61904   0.62240   0.62606
 Alpha virt. eigenvalues --    0.63613   0.63700   0.63788   0.64450   0.64612
 Alpha virt. eigenvalues --    0.65198   0.65439   0.65747   0.66896   0.67338
 Alpha virt. eigenvalues --    0.68608   0.69202   0.69489   0.70204   0.70996
 Alpha virt. eigenvalues --    0.71653   0.72779   0.73808   0.74295   0.74575
 Alpha virt. eigenvalues --    0.77739   0.77859   0.77979   0.78806   0.79414
 Alpha virt. eigenvalues --    0.81474   0.83103   0.83793   0.84351   0.84684
 Alpha virt. eigenvalues --    0.85095   0.85583   0.87019   0.87620   0.87953
 Alpha virt. eigenvalues --    0.88758   0.89639   0.89922   0.90149   0.90264
 Alpha virt. eigenvalues --    0.90527   0.91721   0.93019   0.94388   0.94731
 Alpha virt. eigenvalues --    0.95661   0.96236   0.96329   0.97139   0.97890
 Alpha virt. eigenvalues --    0.98405   0.99565   1.00743   1.01099   1.02154
 Alpha virt. eigenvalues --    1.03550   1.03932   1.05106   1.05356   1.05426
 Alpha virt. eigenvalues --    1.06373   1.07664   1.08727   1.09589   1.09804
 Alpha virt. eigenvalues --    1.10294   1.10536   1.13458   1.13923   1.15140
 Alpha virt. eigenvalues --    1.15458   1.16583   1.17834   1.18377   1.19062
 Alpha virt. eigenvalues --    1.20875   1.22846   1.25182   1.26245   1.26961
 Alpha virt. eigenvalues --    1.27578   1.28611   1.29552   1.33357   1.34393
 Alpha virt. eigenvalues --    1.36568   1.37678   1.39060   1.39157   1.41530
 Alpha virt. eigenvalues --    1.41774   1.44443   1.48228   1.53254   1.54582
 Alpha virt. eigenvalues --    1.62232   1.62524   1.64245   1.82080   1.82727
 Alpha virt. eigenvalues --    1.89968   1.94636   1.94797   1.98026   2.22818
 Alpha virt. eigenvalues --    2.24956
          Condensed to atoms (all electrons):
               1          2          3          4          5          6
     1  O    8.411086   0.000000  -0.004130   0.000000   0.000000   0.000000
     2  O    0.000000   8.334392   0.000000   0.005347   0.000000   0.000000
     3  O   -0.004130   0.000000   8.244412   0.000000   0.000000   0.000000
     4  O    0.000000   0.005347   0.000000   8.230218   0.000000   0.000000
     5  O    0.000000   0.000000   0.000000   0.000000   8.059335  -0.000233
     6  O    0.000000   0.000000   0.000000   0.000000  -0.000233   8.082283
     7  C    0.006471   0.000000  -0.000573   0.000000   0.000650   0.000005
     8  C    0.000000   0.006069   0.000000  -0.000651   0.000000   0.000959
     9  C    0.000000   0.000000   0.000000   0.000000  -0.098713  -0.130404
    10  C   -0.085590   0.000000   0.007259   0.000000  -0.000016   0.000000
    11  C    0.000000  -0.089108   0.000000   0.005065   0.000000  -0.000018
    12  C    0.235253   0.000000  -0.108388   0.000000   0.000000   0.000000
    13  C    0.000000   0.255897   0.000000  -0.069062   0.000000   0.000000
    14  C    0.000212   0.000000   0.004331   0.000000  -0.000007  -0.000006
    15  C    0.000000   0.000020   0.000000   0.007145   0.000000  -0.000008
    16  C   -0.000088   0.000000  -0.000001   0.000000   0.010104   0.000113
    17  C    0.000000  -0.000085   0.000000  -0.000002   0.000001   0.011171
    18  C   -0.083867   0.000000   0.277450   0.000000   0.000000   0.000000
    19  C    0.000000  -0.067682   0.000000   0.267823   0.000000   0.000000
    20  C    0.000000   0.000000   0.000000   0.000000   0.565505   0.012962
    21  C    0.000000   0.000000   0.000000   0.000000   0.000147   0.578169
    22  C    0.002403   0.000000  -0.062997   0.000000   0.000000   0.000000
    23  C    0.000000   0.003753   0.000000  -0.099214   0.000000   0.000000
    24  C    0.000000   0.000000   0.000000   0.000000  -0.143165  -0.000183
    25  C    0.000000   0.000000   0.000000   0.000000  -0.000101  -0.147882
    26  C    0.209355   0.000000  -0.000044   0.000000   0.000000   0.000000
    27  C    0.000000   0.210561   0.000000  -0.000055   0.000000   0.000000
    28  H    0.000000   0.000000   0.000000   0.000000   0.005493   0.000173
    29  H    0.000000   0.000000   0.000000   0.000000   0.001699   0.003170
    30  H   -0.010514   0.000000  -0.000027   0.000000   0.000000   0.000000
    31  H    0.000000  -0.010443   0.000000  -0.000033   0.000000   0.000000
    32  H    0.000001   0.000000  -0.000054   0.000000  -0.000002   0.000006
    33  H    0.000000   0.000001   0.000000  -0.000055   0.000000   0.000001
    34  H    0.000002   0.000000   0.000000   0.000000   0.010610  -0.000001
    35  H    0.000000   0.000002   0.000000   0.000000   0.000000   0.014111
    36  H   -0.000049   0.000000  -0.001719   0.000000   0.000000   0.000000
    37  H    0.000000  -0.000051   0.000000  -0.007193   0.000000   0.000000
    38  H    0.000000   0.000000   0.000000   0.000000   0.002731   0.001856
    39  H    0.000000   0.000000   0.000000   0.000000   0.000001   0.002927
    40  H    0.016366   0.000000   0.256322   0.000000   0.000000   0.000000
    41  H    0.000000  -0.000182   0.000000   0.252164   0.000000   0.000000
    42  H   -0.041125   0.000000  -0.000007   0.000000   0.000000   0.000000
    43  H   -0.040853   0.000000  -0.000007   0.000000   0.000000   0.000000
    44  H   -0.033736   0.000000   0.000000   0.000000   0.000000   0.000000
    45  H    0.000000  -0.040822   0.000000   0.000003   0.000000   0.000000
    46  H    0.000000  -0.040808   0.000000   0.000003   0.000000   0.000000
    47  H    0.000000  -0.033907   0.000000  -0.000009   0.000000   0.000000
               7          8          9         10         11         12
     1  O    0.006471   0.000000   0.000000  -0.085590   0.000000   0.235253
     2  O    0.000000   0.006069   0.000000   0.000000  -0.089108   0.000000
     3  O   -0.000573   0.000000   0.000000   0.007259   0.000000  -0.108388
     4  O    0.000000  -0.000651   0.000000   0.000000   0.005065   0.000000
     5  O    0.000650   0.000000  -0.098713  -0.000016   0.000000   0.000000
     6  O    0.000005   0.000959  -0.130404   0.000000  -0.000018   0.000000
     7  C    4.884089   0.000000  -0.000216   0.394423   0.000000   0.023447
     8  C    0.000000   4.887386  -0.000139   0.000000   0.400607   0.000000
     9  C   -0.000216  -0.000139   6.050488  -0.000002  -0.000001   0.000000
    10  C    0.394423   0.000000  -0.000002   5.417187   0.000000   0.253601
    11  C    0.000000   0.400607  -0.000001   0.000000   5.426839   0.000000
    12  C    0.023447   0.000000   0.000000   0.253601   0.000000   5.304086
    13  C    0.000000  -0.001163   0.000000   0.000000   0.355705   0.000000
    14  C    0.527326   0.000000   0.000017  -0.085570   0.000000  -0.034427
    15  C    0.000000   0.520252  -0.000005   0.000000  -0.080106   0.000000
    16  C    0.314932   0.000000   0.009449  -0.016309   0.000000   0.005852
    17  C    0.000000   0.308208   0.013254   0.000000  -0.013105   0.000000
    18  C   -0.027359   0.000000   0.000000  -0.041353   0.000000   0.274242
    19  C    0.000000  -0.017930   0.000000   0.000000  -0.144324   0.000000
    20  C    0.007086   0.000001   0.135580  -0.000366   0.000000   0.000002
    21  C    0.000013   0.007771   0.117299   0.000000  -0.000336   0.000000
    22  C   -0.036785   0.000000   0.000000  -0.043141   0.000000  -0.096196
    23  C    0.000000  -0.019576   0.000000   0.000000  -0.057033   0.000000
    24  C   -0.039257   0.000000  -0.178509   0.005962   0.000000  -0.000379
    25  C    0.000000  -0.037299  -0.147799   0.000000   0.005810   0.000000
    26  C    0.001001   0.000000   0.000000  -0.006918   0.000000  -0.046862
    27  C    0.000000   0.001156   0.000000   0.000000  -0.008827   0.000000
    28  H    0.000001   0.000004   0.317697   0.000000   0.000000   0.000000
    29  H   -0.000009  -0.000006   0.326041   0.000000   0.000000   0.000000
    30  H   -0.037209   0.000000   0.000000   0.361699   0.000000  -0.051764
    31  H    0.000000  -0.039535   0.000000   0.000000   0.361393   0.000000
    32  H   -0.032489   0.000000   0.000009   0.005158   0.000000   0.000630
    33  H    0.000000  -0.030437   0.000015   0.000000   0.005342   0.000000
    34  H   -0.043973   0.000000   0.001184  -0.005643   0.000000   0.000561
    35  H    0.000000  -0.042921   0.001278   0.000000  -0.005386   0.000000
    36  H    0.003940   0.000000   0.000000   0.000605   0.000000   0.007535
    37  H    0.000000   0.003741   0.000000   0.000000   0.001300   0.000000
    38  H   -0.009265   0.000000  -0.000725   0.000193   0.000000   0.000013
    39  H    0.000000  -0.008163  -0.000710   0.000000   0.000251   0.000000
    40  H   -0.000144   0.000000   0.000000   0.002140   0.000000  -0.011837
    41  H    0.000000  -0.000064   0.000000   0.000000  -0.000003   0.000000
    42  H   -0.000207   0.000000   0.000000   0.005615   0.000000  -0.006500
    43  H   -0.000149   0.000000   0.000000   0.005725   0.000000  -0.006476
    44  H   -0.000004   0.000000   0.000000   0.000169   0.000000   0.003696
    45  H    0.000000  -0.000151   0.000000   0.000000   0.007278   0.000000
    46  H    0.000000  -0.000175   0.000000   0.000000   0.007034   0.000000
    47  H    0.000000  -0.000005   0.000000   0.000000  -0.000046   0.000000
              13         14         15         16         17         18
     1  O    0.000000   0.000212   0.000000  -0.000088   0.000000  -0.083867
     2  O    0.255897   0.000000   0.000020   0.000000  -0.000085   0.000000
     3  O    0.000000   0.004331   0.000000  -0.000001   0.000000   0.277450
     4  O   -0.069062   0.000000   0.007145   0.000000  -0.000002   0.000000
     5  O    0.000000  -0.000007   0.000000   0.010104   0.000001   0.000000
     6  O    0.000000  -0.000006  -0.000008   0.000113   0.011171   0.000000
     7  C    0.000000   0.527326   0.000000   0.314932   0.000000  -0.027359
     8  C   -0.001163   0.000000   0.520252   0.000000   0.308208   0.000000
     9  C    0.000000   0.000017  -0.000005   0.009449   0.013254   0.000000
    10  C    0.000000  -0.085570   0.000000  -0.016309   0.000000  -0.041353
    11  C    0.355705   0.000000  -0.080106   0.000000  -0.013105   0.000000
    12  C    0.000000  -0.034427   0.000000   0.005852   0.000000   0.274242
    13  C    5.086244   0.000000  -0.021948   0.000000   0.005757   0.000000
    14  C    0.000000   5.011287   0.000000  -0.045970   0.000000  -0.051665
    15  C   -0.021948   0.000000   5.049530   0.000000  -0.049565   0.000000
    16  C    0.000000  -0.045970   0.000000   5.048586   0.000000   0.000969
    17  C    0.005757   0.000000  -0.049565   0.000000   5.072316   0.000000
    18  C    0.000000  -0.051665   0.000000   0.000969   0.000000   4.937478
    19  C    0.318760   0.000000  -0.021427   0.000000   0.000995   0.000000
    20  C    0.000000   0.000371   0.000000   0.005262  -0.000211   0.000000
    21  C    0.000001  -0.000009   0.000339   0.000320   0.001059   0.000000
    22  C    0.000000   0.491006   0.000000   0.008077   0.000000   0.511606
    23  C   -0.117592   0.000000   0.393484   0.000000   0.009313   0.000000
    24  C    0.000000  -0.011031   0.000000   0.484041  -0.000008   0.000000
    25  C   -0.000309   0.000000  -0.011484  -0.000002   0.462065   0.000000
    26  C    0.000000   0.000018   0.000000  -0.000025   0.000000   0.004722
    27  C   -0.047255   0.000000   0.000018   0.000000  -0.000032   0.000000
    28  H    0.000000   0.000000   0.000000  -0.000159  -0.000433   0.000000
    29  H    0.000000  -0.000001   0.000001  -0.000778   0.000026   0.000000
    30  H    0.000000   0.005263   0.000000  -0.005861   0.000000   0.001100
    31  H   -0.049116   0.000000   0.005310   0.000000  -0.005483   0.000000
    32  H    0.000000   0.349053   0.000000  -0.008910   0.000000   0.004790
    33  H    0.000615   0.000000   0.345156   0.000000  -0.009596   0.000000
    34  H    0.000000   0.004900   0.000000   0.368411   0.000000  -0.000017
    35  H    0.000440   0.000000   0.004792   0.000000   0.366857   0.000000
    36  H    0.000000  -0.032750   0.000000  -0.000230   0.000000  -0.024833
    37  H    0.003328   0.000000  -0.018668   0.000000  -0.000271   0.000000
    38  H    0.000000   0.003049   0.000000  -0.041826   0.000015  -0.000012
    39  H    0.000014   0.000000   0.002385  -0.000001  -0.050138   0.000000
    40  H    0.000000  -0.000156   0.000000   0.000000   0.000000  -0.043968
    41  H    0.012741   0.000000   0.000919   0.000000  -0.000001   0.000000
    42  H    0.000000   0.000002   0.000000  -0.000002   0.000000  -0.000523
    43  H    0.000000  -0.000002   0.000000   0.000001   0.000000  -0.000518
    44  H    0.000000   0.000000   0.000000   0.000000   0.000000   0.000056
    45  H   -0.008817   0.000000  -0.000004   0.000000   0.000005   0.000000
    46  H   -0.008753   0.000000   0.000003   0.000000  -0.000003   0.000000
    47  H    0.004081   0.000000   0.000000   0.000000   0.000000   0.000000
              19         20         21         22         23         24
     1  O    0.000000   0.000000   0.000000   0.002403   0.000000   0.000000
     2  O   -0.067682   0.000000   0.000000   0.000000   0.003753   0.000000
     3  O    0.000000   0.000000   0.000000  -0.062997   0.000000   0.000000
     4  O    0.267823   0.000000   0.000000   0.000000  -0.099214   0.000000
     5  O    0.000000   0.565505   0.000147   0.000000   0.000000  -0.143165
     6  O    0.000000   0.012962   0.578169   0.000000   0.000000  -0.000183
     7  C    0.000000   0.007086   0.000013  -0.036785   0.000000  -0.039257
     8  C   -0.017930   0.000001   0.007771   0.000000  -0.019576   0.000000
     9  C    0.000000   0.135580   0.117299   0.000000   0.000000  -0.178509
    10  C    0.000000  -0.000366   0.000000  -0.043141   0.000000   0.005962
    11  C   -0.144324   0.000000  -0.000336   0.000000  -0.057033   0.000000
    12  C    0.000000   0.000002   0.000000  -0.096196   0.000000  -0.000379
    13  C    0.318760   0.000000   0.000001   0.000000  -0.117592   0.000000
    14  C    0.000000   0.000371  -0.000009   0.491006   0.000000  -0.011031
    15  C   -0.021427   0.000000   0.000339   0.000000   0.393484   0.000000
    16  C    0.000000   0.005262   0.000320   0.008077   0.000000   0.484041
    17  C    0.000995  -0.000211   0.001059   0.000000   0.009313  -0.000008
    18  C    0.000000   0.000000   0.000000   0.511606   0.000000   0.000000
    19  C    5.048980   0.000000   0.000000   0.000000   0.420497   0.000000
    20  C    0.000000   4.842141  -0.004152  -0.000012   0.000000   0.184258
    21  C    0.000000  -0.004152   4.866996   0.000000  -0.000012   0.007813
    22  C    0.000000  -0.000012   0.000000   5.041165   0.000000   0.000319
    23  C    0.420497   0.000000  -0.000012   0.000000   5.330608   0.000000
    24  C    0.000000   0.184258   0.007813   0.000319   0.000000   5.519359
    25  C    0.000012   0.003177   0.165773   0.000000   0.000273   0.000282
    26  C    0.000000   0.000000   0.000000  -0.000097   0.000000   0.000000
    27  C    0.006964   0.000000   0.000000   0.000000  -0.000083   0.000000
    28  H    0.000000  -0.011605  -0.018618   0.000000   0.000000   0.007167
    29  H    0.000000  -0.030687  -0.020867   0.000000   0.000000   0.004361
    30  H    0.000000   0.000000   0.000000   0.000492   0.000000   0.000354
    31  H    0.001668   0.000000  -0.000001   0.000000   0.000484   0.000000
    32  H    0.000000   0.000014   0.000004  -0.031980   0.000000   0.004317
    33  H    0.003736   0.000000   0.000060   0.000000  -0.031505   0.000000
    34  H    0.000000  -0.002600  -0.000016  -0.000180   0.000000  -0.065663
    35  H   -0.000011  -0.000008  -0.002326   0.000000  -0.000212   0.000000
    36  H    0.000000   0.000000   0.000000   0.338529   0.000000   0.000015
    37  H   -0.047520   0.000000   0.000000   0.000000   0.345368   0.000000
    38  H    0.000000  -0.029189   0.003327  -0.000052   0.000000   0.350453
    39  H   -0.000015   0.000233  -0.030222   0.000000  -0.000006  -0.000007
    40  H    0.000000   0.000000   0.000000   0.006989   0.000000   0.000000
    41  H   -0.036820   0.000000   0.000000   0.000000  -0.012916   0.000000
    42  H    0.000000   0.000000   0.000000  -0.000022   0.000000   0.000000
    43  H    0.000000   0.000000   0.000000  -0.000021   0.000000   0.000000
    44  H    0.000000   0.000000   0.000000   0.000006   0.000000   0.000000
    45  H   -0.000807   0.000000   0.000000   0.000000  -0.000019   0.000000
    46  H   -0.000813   0.000000   0.000000   0.000000  -0.000021   0.000000
    47  H    0.000136   0.000000   0.000000   0.000000   0.000005   0.000000
              25         26         27         28         29         30
     1  O    0.000000   0.209355   0.000000   0.000000   0.000000  -0.010514
     2  O    0.000000   0.000000   0.210561   0.000000   0.000000   0.000000
     3  O    0.000000  -0.000044   0.000000   0.000000   0.000000  -0.000027
     4  O    0.000000   0.000000  -0.000055   0.000000   0.000000   0.000000
     5  O   -0.000101   0.000000   0.000000   0.005493   0.001699   0.000000
     6  O   -0.147882   0.000000   0.000000   0.000173   0.003170   0.000000
     7  C    0.000000   0.001001   0.000000   0.000001  -0.000009  -0.037209
     8  C   -0.037299   0.000000   0.001156   0.000004  -0.000006   0.000000
     9  C   -0.147799   0.000000   0.000000   0.317697   0.326041   0.000000
    10  C    0.000000  -0.006918   0.000000   0.000000   0.000000   0.361699
    11  C    0.005810   0.000000  -0.008827   0.000000   0.000000   0.000000
    12  C    0.000000  -0.046862   0.000000   0.000000   0.000000  -0.051764
    13  C   -0.000309   0.000000  -0.047255   0.000000   0.000000   0.000000
    14  C    0.000000   0.000018   0.000000   0.000000  -0.000001   0.005263
    15  C   -0.011484   0.000000   0.000018   0.000000   0.000001   0.000000
    16  C   -0.000002  -0.000025   0.000000  -0.000159  -0.000778  -0.005861
    17  C    0.462065   0.000000  -0.000032  -0.000433   0.000026   0.000000
    18  C    0.000000   0.004722   0.000000   0.000000   0.000000   0.001100
    19  C    0.000012   0.000000   0.006964   0.000000   0.000000   0.000000
    20  C    0.003177   0.000000   0.000000  -0.011605  -0.030687   0.000000
    21  C    0.165773   0.000000   0.000000  -0.018618  -0.020867   0.000000
    22  C    0.000000  -0.000097   0.000000   0.000000   0.000000   0.000492
    23  C    0.000273   0.000000  -0.000083   0.000000   0.000000   0.000000
    24  C    0.000282   0.000000   0.000000   0.007167   0.004361   0.000354
    25  C    5.565380   0.000000   0.000000   0.001573   0.002218   0.000000
    26  C    0.000000   4.894764   0.000000   0.000000   0.000000   0.008112
    27  C    0.000000   0.000000   4.907041   0.000000   0.000000   0.000000
    28  H    0.001573   0.000000   0.000000   0.522658  -0.021442   0.000000
    29  H    0.002218   0.000000   0.000000  -0.021442   0.569409   0.000000
    30  H    0.000000   0.008112   0.000000   0.000000   0.000000   0.572480
    31  H    0.000345   0.000000   0.007588   0.000000   0.000000   0.000000
    32  H    0.000001   0.000000   0.000000   0.000000  -0.000002  -0.000168
    33  H    0.004740   0.000000   0.000000   0.000000  -0.000001   0.000000
    34  H    0.000000  -0.000006   0.000000  -0.000010  -0.000072   0.005186
    35  H   -0.064518   0.000000  -0.000005  -0.000016  -0.000027   0.000000
    36  H    0.000000   0.000002   0.000000   0.000000   0.000000   0.000012
    37  H    0.000019   0.000000   0.000002   0.000000   0.000000   0.000000
    38  H    0.000015   0.000000   0.000000   0.000062   0.000152   0.000009
    39  H    0.352181   0.000000   0.000000   0.000381   0.002512   0.000000
    40  H    0.000000  -0.000533   0.000000   0.000000   0.000000   0.000011
    41  H    0.000000   0.000000   0.000005   0.000000   0.000000   0.000000
    42  H    0.000000   0.363985   0.000000   0.000000   0.000000   0.001896
    43  H    0.000000   0.364668   0.000000   0.000000   0.000000   0.001686
    44  H    0.000000   0.377501   0.000000   0.000000   0.000000  -0.000013
    45  H    0.000001   0.000000   0.359731   0.000000   0.000000   0.000000
    46  H   -0.000001   0.000000   0.360089   0.000000   0.000000   0.000000
    47  H    0.000000   0.000000   0.379537   0.000000   0.000000   0.000000
              31         32         33         34         35         36
     1  O    0.000000   0.000001   0.000000   0.000002   0.000000  -0.000049
     2  O   -0.010443   0.000000   0.000001   0.000000   0.000002   0.000000
     3  O    0.000000  -0.000054   0.000000   0.000000   0.000000  -0.001719
     4  O   -0.000033   0.000000  -0.000055   0.000000   0.000000   0.000000
     5  O    0.000000  -0.000002   0.000000   0.010610   0.000000   0.000000
     6  O    0.000000   0.000006   0.000001  -0.000001   0.014111   0.000000
     7  C    0.000000  -0.032489   0.000000  -0.043973   0.000000   0.003940
     8  C   -0.039535   0.000000  -0.030437   0.000000  -0.042921   0.000000
     9  C    0.000000   0.000009   0.000015   0.001184   0.001278   0.000000
    10  C    0.000000   0.005158   0.000000  -0.005643   0.000000   0.000605
    11  C    0.361393   0.000000   0.005342   0.000000  -0.005386   0.000000
    12  C    0.000000   0.000630   0.000000   0.000561   0.000000   0.007535
    13  C   -0.049116   0.000000   0.000615   0.000000   0.000440   0.000000
    14  C    0.000000   0.349053   0.000000   0.004900   0.000000  -0.032750
    15  C    0.005310   0.000000   0.345156   0.000000   0.004792   0.000000
    16  C    0.000000  -0.008910   0.000000   0.368411   0.000000  -0.000230
    17  C   -0.005483   0.000000  -0.009596   0.000000   0.366857   0.000000
    18  C    0.000000   0.004790   0.000000  -0.000017   0.000000  -0.024833
    19  C    0.001668   0.000000   0.003736   0.000000  -0.000011   0.000000
    20  C    0.000000   0.000014   0.000000  -0.002600  -0.000008   0.000000
    21  C   -0.000001   0.000004   0.000060  -0.000016  -0.002326   0.000000
    22  C    0.000000  -0.031980   0.000000  -0.000180   0.000000   0.338529
    23  C    0.000484   0.000000  -0.031505   0.000000  -0.000212   0.000000
    24  C    0.000000   0.004317   0.000000  -0.065663   0.000000   0.000015
    25  C    0.000345   0.000001   0.004740   0.000000  -0.064518   0.000000
    26  C    0.000000   0.000000   0.000000  -0.000006   0.000000   0.000002
    27  C    0.007588   0.000000   0.000000   0.000000  -0.000005   0.000000
    28  H    0.000000   0.000000   0.000000  -0.000010  -0.000016   0.000000
    29  H    0.000000  -0.000002  -0.000001  -0.000072  -0.000027   0.000000
    30  H    0.000000  -0.000168   0.000000   0.005186   0.000000   0.000012
    31  H    0.563253   0.000000  -0.000165   0.000000   0.004921   0.000000
    32  H    0.000000   0.564191   0.000000   0.000112   0.000000  -0.004284
    33  H   -0.000165   0.000000   0.577220   0.000000   0.000100   0.000000
    34  H    0.000000   0.000112   0.000000   0.569791   0.000000   0.000002
    35  H    0.004921   0.000000   0.000100   0.000000   0.555039   0.000000
    36  H    0.000000  -0.004284   0.000000   0.000002   0.000000   0.568522
    37  H    0.000013   0.000000  -0.004170   0.000000   0.000002   0.000000
    38  H    0.000000   0.003765   0.000000   0.004703   0.000004   0.000009
    39  H    0.000009   0.000000   0.004551   0.000000   0.004557   0.000000
    40  H    0.000000   0.000004   0.000000   0.000000   0.000000  -0.000199
    41  H    0.000004   0.000000  -0.000012   0.000000   0.000000   0.000000
    42  H    0.000000   0.000000   0.000000  -0.000015   0.000000   0.000000
    43  H    0.000000   0.000000   0.000000   0.000005   0.000000   0.000000
    44  H    0.000000   0.000000   0.000000   0.000000   0.000000   0.000000
    45  H    0.002281   0.000000   0.000000   0.000000   0.000004   0.000000
    46  H    0.002434   0.000000   0.000000   0.000000  -0.000015   0.000000
    47  H   -0.000117   0.000000   0.000000   0.000000   0.000000   0.000000
              37         38         39         40         41         42
     1  O    0.000000   0.000000   0.000000   0.016366   0.000000  -0.041125
     2  O   -0.000051   0.000000   0.000000   0.000000  -0.000182   0.000000
     3  O    0.000000   0.000000   0.000000   0.256322   0.000000  -0.000007
     4  O   -0.007193   0.000000   0.000000   0.000000   0.252164   0.000000
[...]
    12  C    0.000000  -0.036444   0.000000   0.000000   0.000000  -0.050502
    13  C   -0.000331   0.000000  -0.038890   0.000000   0.000000   0.000000
    14  C    0.000000   0.000003   0.000000   0.000000   0.000000   0.004581
    15  C   -0.012203   0.000000   0.000002   0.000000   0.000000   0.000000
    16  C   -0.000050  -0.000012   0.000000  -0.000206  -0.000267  -0.004274
    17  C    0.461511   0.000000  -0.000020  -0.000224  -0.000211   0.000000
    18  C    0.000000   0.005764   0.000000   0.000000   0.000000   0.002077
    19  C    0.000021   0.000000   0.007496   0.000000   0.000000   0.000000
    20  C    0.005412   0.000000   0.000000  -0.021599  -0.017730   0.000001
    21  C    0.172843   0.000000   0.000000  -0.017854  -0.022463   0.000000
    22  C    0.000000  -0.000084   0.000000   0.000000   0.000000   0.000526
    23  C    0.000127   0.000000  -0.000064   0.000000   0.000000   0.000000
    24  C   -0.000315   0.000000   0.000000   0.008296   0.000252   0.000390
    25  C    5.537308   0.000000   0.000000   0.000667   0.007765   0.000000
    26  C    0.000000   4.890063   0.000000   0.000000   0.000000   0.005268
    27  C    0.000000   0.000000   4.906410   0.000000   0.000000   0.000000
    28  H    0.000667   0.000000   0.000000   0.562623  -0.027065   0.000000
    29  H    0.007765   0.000000   0.000000  -0.027065   0.555060   0.000000
    30  H    0.000000   0.005268   0.000000   0.000000   0.000000   0.571571
    31  H    0.000410   0.000000   0.005472   0.000000   0.000000   0.000000
    32  H   -0.000001   0.000000   0.000000   0.000000  -0.000006  -0.000162
    33  H    0.004886   0.000000   0.000000  -0.000007   0.000000   0.000000
    34  H   -0.000003  -0.000002   0.000000  -0.000002  -0.000034   0.005181
    35  H   -0.072625   0.000000  -0.000002  -0.000035  -0.000002   0.000000
    36  H    0.000000   0.000002   0.000000   0.000000   0.000000   0.000012
    37  H    0.000012   0.000000   0.000002   0.000000   0.000000   0.000000
    38  H    0.000672   0.000000   0.000000   0.000198   0.002082   0.000005
    39  H    0.351574   0.000000   0.000000   0.002192   0.000170   0.000000
    40  H    0.000000  -0.000852   0.000000   0.000000   0.000000   0.000006
    41  H    0.000000   0.000000   0.000004   0.000000   0.000000   0.000000
    42  H    0.000000   0.363417   0.000000   0.000000   0.000000   0.001721
    43  H    0.000000   0.363443   0.000000   0.000000   0.000000   0.001723
    44  H    0.000000   0.382979   0.000000   0.000000   0.000000  -0.000088
    45  H    0.000000   0.000000   0.357404   0.000000   0.000000   0.000000
    46  H    0.000000   0.000000   0.357668   0.000000   0.000000   0.000000
    47  H    0.000000   0.000000   0.384576   0.000000   0.000000   0.000000
              31         32         33         34         35         36
     1  O    0.000000   0.000001   0.000000   0.000001   0.000000  -0.000060
     2  O   -0.008330   0.000000   0.000001   0.000000   0.000000   0.000000
     3  O    0.000000  -0.000050   0.000000   0.000000   0.000000  -0.001257
     4  O   -0.000047   0.000000  -0.000042   0.000000   0.000000   0.000000
     5  O    0.000000   0.000001  -0.000008   0.016338   0.000000   0.000000
     6  O   -0.000001  -0.000022   0.000001   0.000000   0.016231   0.000000
     7  C    0.000000  -0.035225   0.000000  -0.043305   0.000000   0.003251
     8  C   -0.039785   0.000000  -0.031013   0.000000  -0.041878   0.000000
     9  C    0.000000   0.000024   0.000023   0.001330   0.001305   0.000000
    10  C    0.000000   0.005291   0.000000  -0.005649   0.000000   0.000432
    11  C    0.359448   0.000000   0.005456   0.000000  -0.005640   0.000000
    12  C    0.000000   0.000597   0.000000   0.000774   0.000000   0.007886
    13  C   -0.051308   0.000000   0.000548   0.000000   0.000586   0.000000
    14  C    0.000000   0.351198   0.000000   0.004829   0.000000  -0.032205
    15  C    0.004900   0.000000   0.348211   0.000000   0.004867   0.000000
    16  C    0.000000  -0.009599   0.000000   0.368889   0.000000  -0.000168
    17  C   -0.004272   0.000000  -0.009577   0.000000   0.367870   0.000000
    18  C    0.000000   0.004603   0.000000  -0.000019   0.000000  -0.024472
    19  C    0.003283   0.000000   0.003325   0.000000  -0.000015   0.000000
    20  C    0.000000   0.000081  -0.000008  -0.002186  -0.000011   0.000000
    21  C    0.000000  -0.000010   0.000070  -0.000019  -0.002319   0.000000
    22  C    0.000000  -0.031931   0.000000  -0.000149   0.000000   0.339292
    23  C    0.000557   0.000000  -0.031327   0.000000  -0.000178   0.000000
    24  C    0.000000   0.005025   0.000000  -0.073317  -0.000003   0.000008
    25  C    0.000410  -0.000001   0.004886  -0.000003  -0.072625   0.000000
    26  C    0.000000   0.000000   0.000000  -0.000002   0.000000   0.000002
    27  C    0.005472   0.000000   0.000000   0.000000  -0.000002   0.000000
    28  H    0.000000   0.000000  -0.000007  -0.000002  -0.000035   0.000000
    29  H    0.000000  -0.000006   0.000000  -0.000034  -0.000002   0.000000
    30  H    0.000000  -0.000162   0.000000   0.005181   0.000000   0.000012
    31  H    0.575353   0.000000  -0.000166   0.000000   0.005175   0.000000
    32  H    0.000000   0.566543   0.000000   0.000061   0.000000  -0.003915
    33  H   -0.000166   0.000000   0.568051   0.000000   0.000052   0.000000
    34  H    0.000000   0.000061   0.000000   0.562833   0.000000   0.000001
    35  H    0.005175   0.000000   0.000052   0.000000   0.559129   0.000000
    36  H    0.000000  -0.003915   0.000000   0.000001   0.000000   0.560219
    37  H    0.000012   0.000000  -0.004008   0.000000   0.000002   0.000000
    38  H    0.000000   0.003951   0.000000   0.004465  -0.000005   0.000003
    39  H    0.000005   0.000000   0.004161  -0.000003   0.004546   0.000000
    40  H    0.000000   0.000003   0.000000   0.000000   0.000000  -0.000200
    41  H    0.000004   0.000000  -0.000007   0.000000   0.000000   0.000000
    42  H    0.000000   0.000000   0.000000  -0.000003   0.000000   0.000000
    43  H    0.000000   0.000000   0.000000  -0.000002   0.000000   0.000000
    44  H    0.000000   0.000000   0.000000   0.000000   0.000000   0.000000
    45  H    0.002153   0.000000   0.000000   0.000000  -0.000004   0.000000
    46  H    0.002110   0.000000   0.000000   0.000000  -0.000004   0.000000
    47  H   -0.000124   0.000000   0.000000   0.000000   0.000000   0.000000
              37         38         39         40         41         42
     1  O    0.000000   0.000000   0.000000   0.023525   0.000000  -0.039411
     2  O   -0.000059   0.000000   0.000000   0.000000  -0.000163   0.000000
     3  O    0.000000   0.000000   0.000000   0.251215   0.000000  -0.000015
     4  O   -0.005861   0.000000   0.000000   0.000000   0.245749   0.000000
     5  O    0.000000   0.002592   0.002937   0.000000   0.000000   0.000000
     6  O    0.000000   0.005988   0.002662   0.000000   0.000000   0.000000
     7  C    0.000000  -0.007444   0.000000  -0.000109   0.000000  -0.000136
     8  C    0.003297   0.000000  -0.007582   0.000000  -0.000047   0.000000
     9  C    0.000000  -0.006923  -0.005417   0.000000   0.000000   0.000000
    10  C    0.000000   0.000243   0.000000   0.001986   0.000000   0.005391
    11  C    0.001136   0.000000   0.000246   0.000000   0.000004   0.000000
    12  C    0.000000   0.000012   0.000000  -0.009329   0.000000  -0.004735
    13  C    0.003968   0.000000   0.000014   0.000000   0.012607   0.000000
    14  C    0.000000   0.001578   0.000000  -0.000145   0.000000  -0.000001
    15  C   -0.020166   0.000000   0.001622   0.000000   0.000570   0.000000
    16  C    0.000000  -0.045616  -0.000012   0.000000   0.000000   0.000002
    17  C   -0.000225  -0.000025  -0.046891   0.000000   0.000000   0.000000
    18  C    0.000000  -0.000008   0.000000  -0.042675   0.000000  -0.000464
    19  C   -0.046007   0.000000  -0.000009   0.000000  -0.033136   0.000000
    20  C    0.000000  -0.027842   0.001830   0.000000   0.000000   0.000000
    21  C    0.000000   0.002494  -0.028124   0.000000   0.000000   0.000000
    22  C    0.000000  -0.000001   0.000000   0.006207   0.000000  -0.000008
    23  C    0.346204   0.000000   0.000010   0.000000  -0.013767   0.000000
    24  C    0.000000   0.349684   0.000417   0.000000   0.000000   0.000000
    25  C    0.000012   0.000672   0.351574   0.000000   0.000000   0.000000
    26  C    0.000000   0.000000   0.000000  -0.000852   0.000000   0.363417
    27  C    0.000002   0.000000   0.000000   0.000000   0.000004   0.000000
    28  H    0.000000   0.000198   0.002192   0.000000   0.000000   0.000000
    29  H    0.000000   0.002082   0.000170   0.000000   0.000000   0.000000
    30  H    0.000000   0.000005   0.000000   0.000006   0.000000   0.001721
    31  H    0.000012   0.000000   0.000005   0.000000   0.000004   0.000000
    32  H    0.000000   0.003951   0.000000   0.000003   0.000000   0.000000
    33  H   -0.004008   0.000000   0.004161   0.000000  -0.000007   0.000000
    34  H    0.000000   0.004465  -0.000003   0.000000   0.000000  -0.000003
    35  H    0.000002  -0.000005   0.004546   0.000000   0.000000   0.000000
    36  H    0.000000   0.000003   0.000000  -0.000200   0.000000   0.000000
    37  H    0.589702   0.000000   0.000005   0.000000   0.005144   0.000000
    38  H    0.000000   0.559899  -0.000039   0.000000   0.000000   0.000000
    39  H    0.000005  -0.000039   0.568539   0.000000   0.000000   0.000000
    40  H    0.000000   0.000000   0.000000   0.372073   0.000000   0.000082
    41  H    0.005144   0.000000   0.000000   0.000000   0.408974   0.000000
    42  H    0.000000   0.000000   0.000000   0.000082   0.000000   0.592907
    43  H    0.000000   0.000000   0.000000   0.000082   0.000000  -0.047346
    44  H    0.000000   0.000000   0.000000  -0.000178   0.000000  -0.031176
    45  H    0.000000   0.000000   0.000000   0.000000   0.000000   0.000000
    46  H    0.000000   0.000000   0.000000   0.000000   0.000000   0.000000
    47  H    0.000000   0.000000   0.000000   0.000000  -0.000001   0.000000
              43         44         45         46         47
     1  O   -0.039404  -0.033001   0.000000   0.000000   0.000000
     2  O    0.000000   0.000000  -0.038870  -0.038839  -0.034074
     3  O   -0.000015   0.000007   0.000000   0.000000   0.000000
     4  O    0.000000   0.000000   0.000002   0.000001  -0.000012
     5  O    0.000000   0.000000   0.000000   0.000000   0.000000
     6  O    0.000000   0.000000   0.000000   0.000000   0.000000
     7  C   -0.000133   0.000001   0.000000   0.000000   0.000000
     8  C    0.000000   0.000000  -0.000144  -0.000137   0.000000
     9  C    0.000000   0.000000   0.000000   0.000000   0.000000
    10  C    0.005382  -0.000082   0.000000   0.000000   0.000000
    11  C    0.000000   0.000000   0.006950   0.006785  -0.000179
    12  C   -0.004766   0.003081   0.000000   0.000000   0.000000
    13  C    0.000000   0.000000  -0.006905  -0.006806   0.003415
    14  C   -0.000001   0.000000   0.000000   0.000000   0.000000
    15  C    0.000000   0.000000   0.000000   0.000000   0.000000
    16  C    0.000002   0.000000   0.000000   0.000000   0.000000
    17  C    0.000000   0.000000   0.000002   0.000001   0.000000
    18  C   -0.000467  -0.000001   0.000000   0.000000   0.000000
    19  C    0.000000   0.000000  -0.000729  -0.000724   0.000105
    20  C    0.000000   0.000000   0.000000   0.000000   0.000000
    21  C    0.000000   0.000000   0.000000   0.000000   0.000000
    22  C   -0.000007   0.000004   0.000000   0.000000   0.000000
    23  C    0.000000   0.000000  -0.000012  -0.000012   0.000004
    24  C    0.000000   0.000000   0.000000   0.000000   0.000000
    25  C    0.000000   0.000000   0.000000   0.000000   0.000000
    26  C    0.363443   0.382979   0.000000   0.000000   0.000000
    27  C    0.000000   0.000000   0.357404   0.357668   0.384576
    28  H    0.000000   0.000000   0.000000   0.000000   0.000000
    29  H    0.000000   0.000000   0.000000   0.000000   0.000000
    30  H    0.001723  -0.000088   0.000000   0.000000   0.000000
    31  H    0.000000   0.000000   0.002153   0.002110  -0.000124
    32  H    0.000000   0.000000   0.000000   0.000000   0.000000
    33  H    0.000000   0.000000   0.000000   0.000000   0.000000
    34  H   -0.000002   0.000000   0.000000   0.000000   0.000000
    35  H    0.000000   0.000000  -0.000004  -0.000004   0.000000
    36  H    0.000000   0.000000   0.000000   0.000000   0.000000
    37  H    0.000000   0.000000   0.000000   0.000000   0.000000
    38  H    0.000000   0.000000   0.000000   0.000000   0.000000
    39  H    0.000000   0.000000   0.000000   0.000000   0.000000
    40  H    0.000082  -0.000178   0.000000   0.000000   0.000000
    41  H    0.000000   0.000000   0.000000   0.000000  -0.000001
    42  H   -0.047346  -0.031176   0.000000   0.000000   0.000000
    43  H    0.592975  -0.031218   0.000000   0.000000   0.000000
    44  H   -0.031218   0.535896   0.000000   0.000000   0.000000
    45  H    0.000000   0.000000   0.609624  -0.049508  -0.031644
    46  H    0.000000   0.000000  -0.049508   0.609315  -0.031832
    47  H    0.000000   0.000000  -0.031644  -0.031832   0.534225
 Mulliken charges:
               1
     1  O   -0.603664
     2  O   -0.539314
     3  O   -0.617413
     4  O   -0.592388
     5  O   -0.450513
     6  O   -0.452435
     7  C    0.081717
     8  C    0.088788
     9  C   -0.381381
    10  C   -0.169664
    11  C   -0.184678
    12  C    0.274382
    13  C    0.289174
    14  C   -0.137368
    15  C   -0.135121
    16  C   -0.135355
    17  C   -0.133524
    18  C    0.256258
    19  C    0.250207
    20  C    0.301197
    21  C    0.303883
    22  C   -0.118495
    23  C   -0.139700
    24  C   -0.139389
    25  C   -0.137187
    26  C   -0.165289
    27  C   -0.173782
    28  H    0.166440
    29  H    0.171815
    30  H    0.145710
    31  H    0.145150
    32  H    0.143540
    33  H    0.141377
    34  H    0.159988
    35  H    0.162959
    36  H    0.151172
    37  H    0.126841
    38  H    0.154036
    39  H    0.147146
    40  H    0.398308
    41  H    0.374065
    42  H    0.159773
    43  H    0.159753
    44  H    0.173776
    45  H    0.151681
    46  H    0.151981
    47  H    0.175540
 Sum of Mulliken charges =   0.00000
 Mulliken charges with hydrogens summed into heavy atoms:
               1
     1  O   -0.603664
     2  O   -0.539314
     3  O   -0.219104
     4  O   -0.218324
     5  O   -0.450513
     6  O   -0.452435
     7  C    0.081717
     8  C    0.088788
     9  C   -0.043126
    10  C   -0.023954
    11  C   -0.039528
    12  C    0.274382
    13  C    0.289174
    14  C    0.006172
    15  C    0.006256
    16  C    0.024633
    17  C    0.029435
    18  C    0.256258
    19  C    0.250207
    20  C    0.301197
    21  C    0.303883
    22  C    0.032677
    23  C   -0.012858
    24  C    0.014648
    25  C    0.009959
    26  C    0.328013
    27  C    0.305420
 Electronic spatial extent (au):  <R**2>=          20727.2054
 Charge=              0.0000 electrons
 Dipole moment (field-independent basis, Debye):
    X=              0.6951    Y=             -1.9110    Z=             -3.2033  Tot=              3.7942
 Quadrupole moment (field-independent basis, Debye-Ang):
   XX=           -133.0357   YY=           -161.5486   ZZ=           -142.9323
   XY=             -6.9037   XZ=            -15.1139   YZ=              3.7543
 Traceless Quadrupole moment (field-independent basis, Debye-Ang):
   XX=             12.8032   YY=            -15.7098   ZZ=              2.9066
   XY=             -6.9037   XZ=            -15.1139   YZ=              3.7543
 Octapole moment (field-independent basis, Debye-Ang**2):
  XXX=            161.8230  YYY=            -12.9962  ZZZ=            -54.0686  XYY=             17.2767
  XXY=            -19.8864  XXZ=           -176.5866  XZZ=            -73.1423  YZZ=            -68.0495
  YYZ=              7.9395  XYZ=             74.0861
 Hexadecapole moment (field-independent basis, Debye-Ang**3):
 XXXX=         -21856.4003 YYYY=          -2821.8752 ZZZZ=          -1792.6487 XXXY=           -628.2539
 XXXZ=           -983.2188 YYYX=            -81.5689 YYYZ=             33.7591 ZZZX=             33.2246
 ZZZY=             45.5392 XXYY=          -4262.2803 XXZZ=          -2997.8369 YYZZ=           -839.1292
 XXYZ=            155.2803 YYXZ=           -130.0957 ZZXY=            146.2243
 N-N= 2.131077105307D+03 E-N=-7.209830192973D+03  KE= 1.256224611454D+03
 1|1|UNPC-DESKTOP-BA0GEBV|FOpt|RB3LYP|6-31G|C21H20O6|MOHAM|16-Dec-2023|
 0||# opt b3lyp/6-31g geom=connectivity||OPtimization||0,1|O,6.98424240
 5,0.7058140887,-1.5986450036|O,-6.8054613778,-0.4374805564,-2.10884419
 89|O,7.01179639,-1.9102048879,-2.0205268268|O,-7.0756896652,2.18010822
 09,-1.7915913643|O,1.0085571713,1.677528576,2.807289668|O,-0.989843866
 9,-2.2270693363,2.1900219146|C,3.9891158922,-0.3261512334,0.4197253693
 |C,-4.0109365857,0.2047324722,0.3033167644|C,-0.0772938542,-0.38356120
 34,3.4595367873|C,4.9658467613,0.5218873014,-0.1605187536|C,-4.8930980
 141,-0.4889350269,-0.5607030367|C,5.9631431995,-0.0083236689,-0.965876
 0203|C,-5.9061196171,0.1708057014,-1.2509497056|C,4.058202946,-1.71123
 7258,0.1564818372|C,-4.1783820643,1.5945500627,0.4526827283|C,2.961464
 1212,0.2776697852,1.2565883258|C,-2.9753978828,-0.5553186842,0.9910283
 17|C,6.0171825036,-1.3942068253,-1.2178705699|C,-6.0570857456,1.566277
 9072,-1.0867250331|C,0.993863575,0.4276819217,2.7224141842|C,-1.063960
 1023,-1.0078649865,2.4708640047|C,5.0618504805,-2.2396637808,-0.653968
 992|C,-5.1911786427,2.2602943721,-0.2371483118|C,1.9535440657,-0.34015
 91822,1.9200187494|C,-2.0464029133,-0.0995931628,1.8665744551|C,7.0463
 267965,2.1458529384,-1.4209003085|C,-6.7046875792,-1.8710331365,-2.316
 7836584|H,-0.5934458596,0.2946644368,4.1442721332|H,0.3897690351,-1.19
 80367724,4.021316687|H,4.9194165308,1.5870084854,0.0358460213|H,-4.765
 8695329,-1.5584489772,-0.6778935635|H,3.3207992919,-2.3799325451,0.585
 0008799|H,-3.5203118704,2.1592465426,1.1026047634|H,3.0082847496,1.361
 3675362,1.3646095469|H,-2.9440561535,-1.6234502668,0.7763082142|H,5.12
 25501621,-3.3007647169,-0.8628663268|H,-5.3133507969,3.3336013834,-0.1
 169720634|H,1.8086570341,-1.4155048545,1.8834671431|H,-1.9845630411,0.
 9463086538,2.1518056335|H,7.5892945304,-1.1793810648,-2.3293645467|H,-
 7.1005852566,3.1405443046,-1.6146446147|H,7.1843948794,2.4029370443,-0
 .3647821065|H,6.1391646151,2.625759753,-1.8046759356|H,7.9106547512,2.
 4718391093,-1.9978431514|H,-6.8487972028,-2.4201238799,-1.3787151368|H
 ,-5.7384953725,-2.1423377057,-2.7584965977|H,-7.5080088903,-2.11089688
 44,-3.0117683011||Version=IA32W-G09RevD.01|State=1-A|HF=-1263.207387|R
 MSD=9.754e-009|RMSF=1.687e-006|Dipole=0.3521249,1.2527405,-0.7314038|Q
 uadrupole=10.8543803,1.0451132,-11.8994935,10.8808858,-4.7773857,-2.18
 61187|PG=C01 [X(C21H20O6)]||@


 THE ENLIGHTENED ONE, BECAUSE HE SAW MANKIND DROWNING  
 IN THE GREAT SEA OF BIRTH, DEATH, AND SORROW, LONGED TO SAVE 
 THEM, FOR THIS HE WAS MOVED TO PITY.                         
 BECAUSE HE SAW MEN OF THE WORLD STRAYING IN FALSE PATHS, AND 
 NONE TO GUIDE THEM, FOR THIS HE WAS MOVED TO PITY.           
                     ..................                       
 BECAUSE HE SAW THE MEN OF THE WORLD PLOUGHING THEIR FIELDS,  
 SOWING THE SEED, TRAFFICKING, HUCKSTERING, BUYING, SELLING,  
 AND AT THE END WINNOWING NOTHING BUT BITTERNESS,             
 FOR THIS HE WAS MOVED TO PITY......                   
                   BUDAH'S PITY - UPSAKA SILA SUTRA           
 Job cpu time:       0 days  6 hours  3 minutes  0.0 seconds.
 File lengths (MBytes):  RWF=     52 Int=      0 D2E=      0 Chk=      7 Scr=      1
 Normal termination of Gaussian 09 at Sat Dec 16 00:53:38 2023.
