 Entering Link 1 = C:\G09W\l1.exe PID=     12464.
  
 Copyright (c) 1988,1990,1992,1993,1995,1998,2003,2009,2013,
            Gaussian, Inc.  All Rights Reserved.
  
 This is part of the Gaussian(R) 09 program.  It is based on
 the Gaussian(R) 03 system (copyright 2003, Gaussian, Inc.),
 the Gaussian(R) 98 system (copyright 1998, Gaussian, Inc.),
 the Gaussian(R) 94 system (copyright 1995, Gaussian, Inc.),
 the Gaussian 92(TM) system (copyright 1992, Gaussian, Inc.),
 the Gaussian 90(TM) system (copyright 1990, Gaussian, Inc.),
 the Gaussian 88(TM) system (copyright 1988, Gaussian, Inc.),
 the Gaussian 86(TM) system (copyright 1986, Carnegie Mellon
 University), and the Gaussian 82(TM) system (copyright 1983,
 Carnegie Mellon University). Gaussian is a federally registered
 trademark of Gaussian, Inc.
  
 This software contains proprietary and confidential information,
 including trade secrets, belonging to Gaussian, Inc.
  
 This software is provided under written license and may be
 used, copied, transmitted, or stored only in accord with that
 written license.
  
 The following legend is applicable only to US Government
 contracts under FAR:
  
                    RESTRICTED RIGHTS LEGEND
  
 Use, reproduction and disclosure by the US Government is
 subject to restrictions as set forth in subparagraphs (a)
 and (c) of the Commercial Computer Software - Restricted
 Rights clause in FAR 52.227-19.
  
 Gaussian, Inc.
 340 Quinnipiac St., Bldg. 40, Wallingford CT 06492
  
  
 ---------------------------------------------------------------
 Warning -- This program may not be used in any manner that
 competes with the business of Gaussian, Inc. or will provide
 assistance to any competitor of Gaussian, Inc.  The licensee
 of this program is prohibited from giving any competitor of
 Gaussian, Inc. access to this program.  By using this program,
 the user acknowledges that Gaussian, Inc. is engaged in the
 business of creating and licensing software in the field of
 computational chemistry and represents and warrants to the
 licensee that it is not a competitor of Gaussian, Inc. and that
 it will not use this program in any manner prohibited above.
 ---------------------------------------------------------------
  

 Cite this work as:
 Gaussian 09, Revision D.01,
 M. J. Frisch, G. W. Trucks, H. B. Schlegel, G. E. Scuseria, 
 M. A. Robb, J. R. Cheeseman, G. Scalmani, V. Barone, B. Mennucci, 
 G. A. Petersson, H. Nakatsuji, M. Caricato, X. Li, H. P. Hratchian, 
 A. F. Izmaylov, J. Bloino, G. Zheng, J. L. Sonnenberg, M. Hada, 
 M. Ehara, K. Toyota, R. Fukuda, J. Hasegawa, M. Ishida, T. Nakajima, 
 Y. Honda, O. Kitao, H. Nakai, T. Vreven, J. A. Montgomery, Jr., 
 J. E. Peralta, F. Ogliaro, M. Bearpark, J. J. Heyd, E. Brothers, 
 K. N. Kudin, V. N. Staroverov, T. Keith, R. Kobayashi, J. Normand, 
 K. Raghavachari, A. Rendell, J. C. Burant, S. S. Iyengar, J. Tomasi, 
 M. Cossi, N. Rega, J. M. Millam, M. Klene, J. E. Knox, J. B. Cross, 
 V. Bakken, C. Adamo, J. Jaramillo, R. Gomperts, R. E. Stratmann, 
 O. Yazyev, A. J. Austin, R. Cammi, C. Pomelli, J. W. Ochterski, 
 R. L. Martin, K. Morokuma, V. G. Zakrzewski, G. A. Voth, 
 P. Salvador, J. J. Dannenberg, S. Dapprich, A. D. Daniels, 
 O. Farkas, J. B. Foresman, J. V. Ortiz, J. Cioslowski, 
 and D. J. Fox, Gaussian, Inc., Wallingford CT, 2013.
 
 ******************************************
 Gaussian 09:  IA32W-G09RevD.01 24-Apr-2013
                16-Dec-2023 
 ******************************************
 %nprocshared=4
 Will use up to    4 processors via shared memory.
 %mem=1GB
 %chk=D:\DFT\Curcumin\IR_Frequency.chk
 ------------------------------------------
 # freq=raman b3lyp/6-31g geom=connectivity
 ------------------------------------------
 1/10=4,30=1,38=1,57=2/1,3;
 2/12=2,17=6,18=5,40=1/2;
 3/5=1,6=6,11=2,16=1,25=1,30=1,71=2,74=-5,140=1/1,2,3;
 4//1;
 5/5=2,38=5,98=1/2;
 8/6=4,10=90,11=11/1;
 10/13=10,15=4/2;
 11/6=3,8=1,9=11,15=111,16=1/1,2,10;
 10/6=1/2;
 6/7=2,8=2,9=2,10=2,18=1,28=1/1;
 7/8=1,10=1,25=1/1,2,3,16;
 1/10=4,30=1/3;
 99//99;
 -------------------
 Title Card Required
 -------------------
 Symbolic Z-matrix:
 Charge =  0 Multiplicity = 1
 O                     7.4029   -1.3263    0.7759 
 O                    -7.3871   -1.1972   -1.0249 
 O                     6.3135   -3.3404   -0.7995 
 O                    -7.4431   -1.9508    1.6498 
 O                     2.0774    3.9183    0.0082 
 O                    -0.7337    2.0147   -1.5497 
 C                     4.2152    0.1624   -0.1618 
 C                    -4.1499    0.0187    0.1151 
 C                     0.0325    2.7881    0.6005 
 C                     5.4636    0.009     0.419 
 C                    -5.2198   -0.2584   -0.7203 
 C                     6.1754   -1.1716    0.2058 
 C                    -6.3336   -0.9225   -0.2061 
 C                     3.6591   -0.8321   -0.9499 
 C                    -4.1632   -0.35      1.4506 
 C                     3.4633    1.4098    0.0623 
 C                    -2.9736    0.7211   -0.4274 
 C                     5.6288   -2.1824   -0.5851 
 C                    -6.3619   -1.3004    1.1364 
 C                     1.475     2.8559    0.1393 
 C                    -0.9161    2.0663   -0.3361 
 C                     4.3707   -2.0125   -1.1631 
 C                    -5.2767   -1.014     1.9646 
 C                     2.1398    1.5414   -0.1041 
 C                    -2.0693    1.3763    0.3142 
 C                     7.8896   -0.246     1.5698 
 C                    -7.2788   -0.7771   -2.3836 
 H                    -0.3396    3.8125    0.7159 
 H                     0.0292    2.3169    1.5899 
 H                     5.8387    0.8262    1.0258 
 H                    -5.1448    0.0602   -1.7545 
 H                     2.6936   -0.7339   -1.4362 
 H                    -3.3333   -0.1676    2.1258 
 H                     4.0582    2.2679    0.3672 
 H                    -2.8704    0.6886   -1.5096 
 H                     3.9419   -2.7946   -1.7839 
 H                    -5.2841   -1.3074    3.0111 
 H                     1.4908    0.7093   -0.3479 
 H                    -2.1353    1.4686    1.3916 
 H                     7.1616   -3.2862   -0.3257 
 H                    -7.2855   -2.1323    2.5922 
 H                     7.2578   -0.0732    2.4478 
 H                     8.0337    0.6611    0.9731 
 H                     8.8763   -0.54      1.9427 
 H                    -6.4576   -1.286    -2.8996 
 H                    -7.2124    0.3132   -2.4653 
 H                    -8.2037   -1.0768   -2.8876 
 

 GradGradGradGradGradGradGradGradGradGradGradGradGradGradGradGradGradGrad
 Berny optimization.
 Initialization pass.
 Trust Radius=3.00D-01 FncErr=1.00D-07 GrdErr=1.00D-07
 Number of steps in this run=      2 maximum allowed number of steps=      2.
 GradGradGradGradGradGradGradGradGradGradGradGradGradGradGradGradGradGrad

                          Input orientation:                          
 ---------------------------------------------------------------------
 Center     Atomic      Atomic             Coordinates (Angstroms)
 Number     Number       Type             X           Y           Z
 ---------------------------------------------------------------------
      1          8           0        7.402900   -1.326300    0.775900
      2          8           0       -7.387100   -1.197200   -1.024900
      3          8           0        6.313500   -3.340400   -0.799500
      4          8           0       -7.443100   -1.950800    1.649800
      5          8           0        2.077400    3.918300    0.008200
      6          8           0       -0.733700    2.014700   -1.549700
      7          6           0        4.215200    0.162400   -0.161800
      8          6           0       -4.149900    0.018700    0.115100
      9          6           0        0.032500    2.788100    0.600500
     10          6           0        5.463600    0.009000    0.419000
     11          6           0       -5.219800   -0.258400   -0.720300
     12          6           0        6.175400   -1.171600    0.205800
     13          6           0       -6.333600   -0.922500   -0.206100
     14          6           0        3.659100   -0.832100   -0.949900
     15          6           0       -4.163200   -0.350000    1.450600
     16          6           0        3.463300    1.409800    0.062300
     17          6           0       -2.973600    0.721100   -0.427400
     18          6           0        5.628800   -2.182400   -0.585100
     19          6           0       -6.361900   -1.300400    1.136400
     20          6           0        1.475000    2.855900    0.139300
     21          6           0       -0.916100    2.066300   -0.336100
     22          6           0        4.370700   -2.012500   -1.163100
     23          6           0       -5.276700   -1.014000    1.964600
     24          6           0        2.139800    1.541400   -0.104100
     25          6           0       -2.069300    1.376300    0.314200
     26          6           0        7.889600   -0.246000    1.569800
     27          6           0       -7.278800   -0.777100   -2.383600
     28          1           0       -0.339600    3.812500    0.715900
     29          1           0        0.029200    2.316900    1.589900
     30          1           0        5.838700    0.826200    1.025800
     31          1           0       -5.144800    0.060200   -1.754500
     32          1           0        2.693600   -0.733900   -1.436200
     33          1           0       -3.333300   -0.167600    2.125800
     34          1           0        4.058200    2.267900    0.367200
     35          1           0       -2.870400    0.688600   -1.509600
     36          1           0        3.941900   -2.794600   -1.783900
     37          1           0       -5.284100   -1.307400    3.011100
     38          1           0        1.490800    0.709300   -0.347900
     39          1           0       -2.135300    1.468600    1.391600
     40          1           0        7.161600   -3.286200   -0.325700
     41          1           0       -7.285500   -2.132300    2.592200
     42          1           0        7.257800   -0.073200    2.447800
     43          1           0        8.033700    0.661100    0.973100
     44          1           0        8.876300   -0.540000    1.942700
     45          1           0       -6.457600   -1.286000   -2.899600
     46          1           0       -7.212400    0.313200   -2.465300
     47          1           0       -8.203700   -1.076800   -2.887600
 ---------------------------------------------------------------------
                    Distance matrix (angstroms):
                    1          2          3          4          5
     1  O    0.000000
     2  O   14.899787   0.000000
     3  O    2.779438  13.869050   0.000000
     4  O   14.884805   2.779401  14.041870   0.000000
     5  O    7.513730  10.807978   8.443083  11.304031   0.000000
     6  O    9.098074   7.406716   8.882732   8.424847   3.735375
     7  C    3.641008  11.713531   4.132691  11.985970   4.325029
     8  C   11.649587   3.641082  11.027365   4.132723   7.348304
     9  C    8.442858   8.577587   8.886477   8.913069   2.410350
    10  C    2.381447  12.987696   3.664090  13.112536   5.188230
    11  C   12.755845   2.381452  11.938258   3.663967   8.439471
    12  C    1.362242  13.618248   2.394450  13.716991   6.537563
    13  C   13.777475   1.362261  12.889822   2.394317   9.706915
    14  C    4.151946  11.052486   3.655137  11.457259   5.097650
    15  C   11.626825   4.152033  11.125048   3.655131   7.697012
    16  C    4.849321  11.212031   5.606312  11.522298   2.866395
    17  C   10.644789   4.849316  10.143198   5.606268   5.993700
    18  C    2.394297  13.060540   1.362257  13.263596   7.083995
    19  C   13.769544   2.394348  12.983646   1.362202   9.986463
    20  C    7.282586   9.814265   7.917485  10.242972   1.228319
    21  C    9.052737   7.280022   9.039594   7.917236   3.536876
    22  C    3.663991  11.786843   2.381175  12.144220   6.465722
    23  C   12.739026   3.663941  12.140227   2.381172   9.068510
    24  C    6.057914   9.955382   6.460288  10.349087   2.380369
    25  C    9.861024   6.057647   9.682919   6.459965   4.873451
    26  C    1.426255  15.524652   4.203925  15.427392   7.318583
    27  C   15.027853   1.426281  13.922302   4.203913  10.738062
    28  H    9.292856   8.820132   9.885553   9.194972   2.520699
    29  H    8.264802   8.613221   8.786734   8.605354   3.043252
    30  H    2.672532  13.535926   4.573588  13.583347   4.974331
    31  H   12.875173   2.672317  11.990360   4.573354   8.375692
    32  H    5.236586  10.099719   4.505875  10.665689   4.910087
    33  H   10.882592   5.236438  10.568102   4.505201   7.103132
    34  H    4.926695  12.039093   6.156346  12.317564   2.603127
    35  H   10.715597   4.918511  10.053910   6.152871   6.100443
    36  H    4.548297  11.466212   2.625153  11.921431   7.193817
    37  H   12.882408   4.552367  12.375706   2.632182   9.514044
    38  H    6.352914   9.105503   6.313672   9.533179   3.281553
    39  H    9.958304   6.366111   9.965421   6.319154   5.065735
    40  H    2.261185  14.714533   0.972984  14.798079   8.824137
    41  H   14.822202   3.737398  14.067549   0.972573  11.443370
    42  H    2.094412  15.092916   4.702261  14.841787   6.979990
    43  H    2.094410  15.660343   4.702468  15.710229   6.856959
    44  H    2.037302  16.544991   4.682931  16.382886   8.357259
    45  H   14.339609   2.094363  13.104655   4.702149  10.410872
    46  H   15.059891   2.094416  14.109346   4.702443  10.267197
    47  H   16.032762   2.037396  14.840254   4.682989  11.791425
                    6          7          8          9         10
     6  O    0.000000
     7  C    5.463414   0.000000
     8  C    4.292551   8.370915   0.000000
     9  C    2.410098   4.997037   5.039609   0.000000
    10  C    6.804788   1.385411   9.618307   6.103539   0.000000
    11  C    5.097056   9.460878   1.385411   6.213882  10.747304
    12  C    7.808326   2.399389  10.394078   7.319169   1.394966
    13  C    6.464618  10.604534   2.399494   7.412583  11.850416
    14  C    5.268844   1.385417   7.927078   5.353673   2.416104
    15  C    5.133720   8.547513   1.385524   5.307941   9.688568
    16  C    4.536437   1.473629   7.739429   3.736276   2.467929
    17  C    2.819594   7.215368   1.473551   3.790212   8.509396
    18  C    7.682936   2.770476  10.047791   7.578264   2.416142
    19  C    7.062695  10.756400   2.770564   7.608638  11.919381
    20  C    2.904943   3.854128   6.299983   1.515951   4.908360
    21  C    1.228315   5.475898   3.854051   1.515934   6.745608
    22  C    6.513271   2.399369   8.852129   6.706417   2.789970
    23  C    6.493241   9.798044   2.399333   6.671157  10.899057
    24  C    3.251273   2.492440   6.475105   2.547830   3.697233
    25  C    2.380232   6.418339   2.492311   2.548080   7.656701
    26  C    9.444752   4.082456  12.129954   8.478168   2.697191
    27  C    7.164347  11.744407   4.082501   8.664330  13.070627
    28  H    2.918963   5.902524   5.410385   1.095979   6.944918
    29  H    3.245062   5.023238   4.992157   1.095880   6.019146
    30  H    7.158364   2.118201  10.062483   6.143443   1.084768
    31  H    4.829060   9.495090   2.118243   6.308082  10.828891
    32  H    4.394778   2.177778   7.057367   4.861490   3.415636
    33  H    5.002964   7.894420   2.178178   4.731946   8.962690
    34  H    5.167293   2.176608   8.514421   4.065870   2.660914
    35  H    2.515082   7.231817   2.173830   4.157794   8.581195
    36  H    6.711591   3.383748   8.774855   7.220479   3.876663
    37  H    7.248682  10.122465   3.381090   7.130943  11.133955
    38  H    2.845486   2.784975   5.701648   2.710629   4.106299
    39  H    3.303627   6.666938   2.791106   2.658247   7.798696
    40  H    9.588195   4.538830  11.792655   9.411644   3.781022
    41  H    8.790849  12.046421   4.538151   9.040483  13.109062
    42  H    9.176241   4.015337  11.644121   7.987773   2.709601
    43  H    9.223018   4.014678  12.230656   8.287470   2.708814
    44  H   10.539234   5.162184  13.165643   9.544137   3.777510
    45  H    6.743877  11.113149   4.014491   8.424392  12.442071
    46  H    6.760694  11.658426   4.015483   8.246989  13.003565
    47  H    8.194403  12.774767   5.162327   9.743679  14.103463
                   11         12         13         14         15
    11  C    0.000000
    12  C   11.469184   0.000000
    13  C    1.394984  12.518258   0.000000
    14  C    8.900377   2.789743  10.020752   0.000000
    15  C    2.416113  10.445631   2.789811   8.196536   0.000000
    16  C    8.876462   3.746959  10.074270   2.467590   7.949074
    17  C    2.467919   9.364158   3.746998   6.832141   2.467648
    18  C   11.018719   1.394995  12.034534   2.415804  10.167843
    19  C    2.416090  12.572450   1.394961  10.246580   2.415836
    20  C    7.433581   6.190229   8.681581   4.422442   6.617145
    21  C    4.906493   7.814539   6.188629   5.450681   4.424303
    22  C    9.759643   2.416183  10.802129   1.394695   9.078699
    23  C    2.789777  11.587442   2.416061   9.400847   1.394623
    24  C    7.601493   4.872625   8.824948   2.942304   6.761826
    25  C    3.697037   8.630100   4.872314   6.268137   2.942097
    26  C   13.307933   2.378174  14.349596   4.958783  12.053838
    27  C    2.697239  13.706791   2.378245  11.031599   4.958878
    28  H    6.515462   8.218679   7.694046   6.351126   5.699659
    29  H    6.286589   7.201468   7.362374   5.435344   4.970712
    30  H   11.247917   2.185628  12.358819   3.376982  10.079777
    31  H    1.084758  11.554524   2.185518   8.885507   3.377050
    32  H    7.959932   3.874361   9.112577   1.085505   7.449611
    33  H    3.415759   9.752425   3.874201   7.667799   1.085310
    34  H    9.677093   4.042121  10.885625   3.391760   8.695894
    35  H    2.653203   9.393053   4.035903   6.727567   3.393053
    36  H    9.565579   3.403169  10.563149   2.151032   9.062599
    37  H    3.876581  11.798656   3.405873   9.792663   2.146670
    38  H    6.790234   5.078370   7.994005   2.727608   6.026976
    39  H    4.117862   8.800256   5.088784   6.659648   2.724549
    40  H   12.752347   2.393035  13.701161   4.322006  11.833326
    41  H    4.330274  13.704513   3.193777  11.576755   3.772082
    42  H   12.874846   2.721146  13.874100   5.007089  11.467793
    43  H   13.392847   2.720444  14.502331   5.006466  12.248049
    44  H   14.348202   3.272705  15.365699   5.972573  13.050166
    45  H    2.708774  13.009584   2.720744  10.312855   5.006457
    46  H    2.709651  13.732174   2.720887  11.036198   5.007168
    47  H    3.777648  14.708386   3.272847  12.022503   5.972760
                   16         17         18         19         20
    16  C    0.000000
    17  C    6.492133   0.000000
    18  C    4.244104   9.080554   0.000000
    19  C   10.248582   4.244115  12.145714   0.000000
    20  C    2.459771   4.966746   6.569876   8.926704   0.000000
    21  C    4.446219   2.459920   7.806995   6.569601   2.562583
    22  C    3.746614   7.870995   1.394907  10.999249   5.812284
    23  C    9.267208   3.746532  11.260376   1.394847   7.993328
    24  C    1.340395   5.188861   5.125541   9.049507   1.493021
    25  C    5.538433   1.340528   8.528413   5.125149   3.844720
    26  C    4.960480  11.087525   3.674841  14.297022   7.267407
    27  C   11.231993   4.960450  13.107845   3.674908   9.807789
    28  H    4.545570   4.219223   8.558810   7.911173   2.130804
    29  H    3.866450   3.953844   7.505321   7.357763   2.117805
    30  H    2.628963   8.931935   3.419171  12.385043   4.893612
    31  H    8.900650   2.629086  11.066490   3.419045   7.431297
    32  H    2.726424   5.937328   3.382000   9.430868   4.105344
    33  H    7.275988   2.727270   9.577454   3.381504   6.017265
    34  H    1.087753   7.243631   4.814440  11.040965   2.659061
    35  H    6.565573   1.087595   9.018522   4.811238   5.128212
    36  H    4.616762   7.875556   2.158134  10.813375   6.458517
    37  H    9.622661   4.612646  11.523440   2.162453   8.441904
    38  H    2.133007   4.465123   5.053834   8.240567   2.201251
    39  H    5.754548   2.137818   8.804453   5.059312   4.065356
    40  H    5.990024  10.899132   1.906604  13.746497   8.383259
    41  H   11.596705   5.987684  13.299507   1.914275  10.375221
    42  H    4.721031  10.657356   4.037431  13.737613   6.881103
    43  H    4.720028  11.096200   4.036957  14.529537   6.966270
    44  H    6.052949  12.150221   4.430971  15.278451   8.340481
    45  H   10.698806   4.720008  12.338619   4.037160   9.450735
    46  H   11.025510   4.720894  13.215884   4.037239   9.419139
    47  H   12.288368   6.053014  14.066340   4.431117  10.876833
                   21         22         23         24         25
    21  C    0.000000
    22  C    6.728357   0.000000
    23  C    5.813459  10.190772   0.000000
    24  C    3.109320   4.327655   8.112587   0.000000
    25  C    1.492937   7.425630   4.327213   4.233055   0.000000
    26  C    9.301588   4.792903  13.194588   6.249555  10.167993
    27  C    7.263686  11.778229   4.792846   9.964015   6.249332
    28  H    2.118554   7.723224   7.016360   3.460884   3.014680
    29  H    2.160062   6.720962   6.275976   2.815256   2.629799
    30  H    7.001424   3.873567  11.305742   3.933198   7.958985
    31  H    4.890624   9.756566   3.873372   7.614668   3.933235
    32  H    4.699072   2.126515   8.670039   2.694100   5.495640
    33  H    4.110245   8.577420   2.125837   6.152069   2.695036
    34  H    5.027816   4.556457  10.023119   2.104800   6.192255
    35  H    2.663541   7.736248   4.556226   5.273026   2.107354
    36  H    7.023150   1.086712  10.109618   4.987002   7.611370
    37  H    6.454845  10.542119   1.086877   8.540165   4.981009
    38  H    2.763106   4.045562   7.356390   1.083065   3.682062
    39  H    2.197417   7.808494   4.044753   4.529779   1.083359
    40  H    9.690129   3.180043  12.849890   6.969455  10.361365
    41  H    8.171440  12.246780   2.383223  10.469116   6.686427
    42  H    8.896078   5.013465  12.579041   5.942479   9.677195
    43  H    9.153552   5.012889  13.451981   6.055852  10.149693
    44  H   10.386377   5.666982  14.160952   7.341801  11.230778
    45  H    6.965463  10.990692   5.012878   9.472291   6.055867
    46  H    6.873881  11.885824   5.013223   9.723548   5.941993
    47  H    8.336567  12.726546   5.667020  11.026823   7.341668
                   26         27         28         29         30
    26  C    0.000000
    27  C   15.684126   0.000000
    28  H    9.215221   8.878278   0.000000
    29  H    8.267693   8.875156   1.771076   0.000000
    30  H    2.377339  13.647834   6.869164   6.024175   0.000000
    31  H   13.455122   2.377140   6.578190   6.561096  11.355796
    32  H    6.022665  10.017395   5.873805   5.056055   4.288008
    33  H   11.236938   6.022719   5.176027   4.215013   9.291029
    34  H    4.737675  12.056803   4.674187   4.210729   2.383785
    35  H   11.230930   4.727171   4.595275   4.545981   9.071693
    36  H    5.772954  11.416394   8.260388   7.267681   4.960086
    37  H   13.294747   5.776057   7.478596   6.586844  11.498276
    38  H    6.747949   9.124656   3.756579   2.911309   4.561245
    39  H   10.172032   6.763941   3.029022   2.333237   8.008194
    40  H    3.655916  14.800530  10.380004   9.270134   4.526417
    41  H   15.326027   5.157053   9.333096   8.620024  13.544407
    42  H    1.095406  15.334622   8.707389   7.661673   2.201102
    43  H    1.095284  15.741935   8.950398   8.197203   2.201831
    44  H    1.095019  16.726038  10.265579   9.303630   3.454594
    45  H   15.063176   1.095265   8.746226   8.672662  13.079340
    46  H   15.641775   1.095371   8.342692   8.538163  13.519695
    47  H   16.719837   1.095115   9.936525   9.967239  14.701194
                   31         32         33         34         35
    31  H    0.000000
    32  H    7.884949   0.000000
    33  H    4.288374   7.023679   0.000000
    34  H    9.699008   3.758349   7.978634   0.000000
    35  H    2.372290   5.743430   3.763441   7.349970   0.000000
    36  H    9.524645   2.434262   8.666915   5.501787   7.656066
    37  H    4.959907   9.151561   2.426627  10.346572   5.499699
    38  H    6.814033   2.171164   5.491820   3.087417   4.513318
    39  H    4.575874   6.013795   2.156711   6.328327   3.092852
    40  H   12.833057   5.264073  11.219556   6.399940  10.855491
    41  H    5.318219  10.852003   4.438182  12.368990   6.653972
    42  H   13.095862   6.029420  10.596414   4.477397  10.900541
    43  H   13.471219   6.022244  11.455311   4.330534  11.183200
    44  H   14.512780   7.048428  12.216650   5.794876  12.304991
    45  H    2.201579   9.283901   6.022185  11.570836   4.324251
    46  H    2.200958  10.014205   6.029659  11.784326   4.461754
    47  H    3.454498  10.998877   7.048519  13.120020   5.784428
                   36         37         38         39         40
    36  H    0.000000
    37  H   10.503469   0.000000
    38  H    4.510798   7.826189   0.000000
    39  H    8.074097   4.499322   4.092798   0.000000
    40  H    3.568541  13.036308   6.937037  10.582513   0.000000
    41  H   12.068281   2.204890   9.682062   6.397850  14.783921
    42  H    6.025653  12.615063   6.456511   9.577214   4.245577
    43  H    6.023764  13.615882   6.675096  10.209592   4.246012
    44  H    6.581723  14.221368   7.832829  11.206851   3.953157
    45  H   10.567415   6.026104   8.583091   6.684646  14.003870
    46  H   11.599187   6.027905   8.965822   6.479782  14.971488
    47  H   12.316030   6.585735  10.179566   7.849592  15.733316
                   41         42         43         44         45
    41  H    0.000000
    42  H   14.689054   0.000000
    43  H   15.655748   1.820977   0.000000
    44  H   16.253032   1.758571   1.758619   0.000000
    45  H    5.617963  14.770842  15.125699  16.097605   0.000000
    46  H    5.618195  15.286417  15.632888  16.703433   1.820928
    47  H    5.655562  16.386937  16.780300  17.757994   1.758628
                   46         47
    46  H    0.000000
    47  H    1.758725   0.000000
 Stoichiometry    C21H20O6
 Framework group  C1[X(C21H20O6)]
 Deg. of freedom   135
 Full point group                 C1      NOp   1
 Largest Abelian subgroup         C1      NOp   1
 Largest concise Abelian subgroup C1      NOp   1
                         Standard orientation:                         
 ---------------------------------------------------------------------
 Center     Atomic      Atomic             Coordinates (Angstroms)
 Number     Number       Type             X           Y           Z
 ---------------------------------------------------------------------
      1          8           0        7.401293   -1.310257    0.697230
      2          8           0       -7.409365   -1.174664   -0.924395
      3          8           0        6.289077   -3.341696   -0.839489
      4          8           0       -7.434013   -1.894764    1.759989
      5          8           0        2.076276    3.934781   -0.070830
      6          8           0       -0.757095    2.017421   -1.570418
      7          6           0        4.205056    0.172878   -0.220006
      8          6           0       -4.156278    0.049010    0.160742
      9          6           0        0.036736    2.816054    0.560448
     10          6           0        5.460186    0.024285    0.347384
     11          6           0       -5.236812   -0.236384   -0.658013
     12          6           0        6.167194   -1.160271    0.140267
     13          6           0       -6.345437   -0.891844   -0.122007
     14          6           0        3.637567   -0.830275   -0.988783
     15          6           0       -4.153911   -0.302992    1.500804
     16          6           0        3.458205    1.424443   -0.002336
     17          6           0       -2.985434    0.742292   -0.404801
     18          6           0        5.609141   -2.179776   -0.631222
     19          6           0       -6.358000   -1.252929    1.225352
     20          6           0        1.473608    2.875279    0.080866
     21          6           0       -0.924547    2.084497   -0.355421
     22          6           0        4.344375   -2.014631   -1.195900
     23          6           0       -5.262239   -0.958355    2.036605
     24          6           0        2.133009    1.556549   -0.154200
     25          6           0       -2.070952    1.404912    0.317469
     26          6           0        7.899614   -0.221102    1.471582
     27          6           0       -7.316930   -0.771740   -2.289454
     28          1           0       -0.332076    3.842539    0.667583
     29          1           0        0.044685    2.357227    1.555620
     30          1           0        5.844153    0.848247    0.939311
     31          1           0       -5.173889    0.069157   -1.696948
     32          1           0        2.666371   -0.736253   -1.464451
     33          1           0       -3.315489   -0.113817    2.163495
     34          1           0        4.058337    2.285110    0.284544
     35          1           0       -2.895534    0.696107   -1.487690
     36          1           0        3.906605   -2.803565   -1.801607
     37          1           0       -5.257370   -1.238677    3.086699
     38          1           0        1.479576    0.722747   -0.379654
     39          1           0       -2.123606    1.510759    1.394358
     40          1           0        7.143004   -3.283256   -0.376789
     41          1           0       -7.265229   -2.064814    2.702588
     42          1           0        7.278910   -0.036138    2.355002
     43          1           0        8.038043    0.678208    0.861890
     44          1           0        8.890268   -0.512363    1.836053
     45          1           0       -6.503021   -1.288637   -2.809045
     46          1           0       -7.249567    0.317325   -2.385564
     47          1           0       -8.248464   -1.075887   -2.778347
 ---------------------------------------------------------------------
 Rotational constants (GHZ):      0.3175001      0.0504703      0.0469890
 Standard basis: 6-31G (6D, 7F)
 There are   283 symmetry adapted cartesian basis functions of A   symmetry.
 There are   283 symmetry adapted basis functions of A   symmetry.
   283 basis functions,   674 primitive gaussians,   283 cartesian basis functions
    97 alpha electrons       97 beta electrons
       nuclear repulsion energy      2133.1211256546 Hartrees.
 NAtoms=   47 NActive=   47 NUniq=   47 SFac= 1.00D+00 NAtFMM=   60 NAOKFM=F Big=F
 Integral buffers will be    262144 words long.
 Raffenetti 2 integral format.
 Two-electron integral symmetry is turned on.
 One-electron integrals computed using PRISM.
 NBasis=   283 RedAO= T EigKep=  5.30D-04  NBF=   283
 NBsUse=   283 1.00D-06 EigRej= -1.00D+00 NBFU=   283
 ExpMin= 1.61D-01 ExpMax= 5.48D+03 ExpMxC= 8.25D+02 IAcc=1 IRadAn=         1 AccDes= 0.00D+00
 Harris functional with IExCor=  402 and IRadAn=       1 diagonalized for initial guess.
 HarFok:  IExCor=  402 AccDes= 0.00D+00 IRadAn=         1 IDoV= 1 UseB2=F ITyADJ=14
 ICtDFT=  3500011 ScaDFX=  1.000000  1.000000  1.000000  1.000000
 FoFCou: FMM=F IPFlag=           0 FMFlag=      100000 FMFlg1=           0
         NFxFlg=           0 DoJE=T BraDBF=F KetDBF=T FulRan=T
         wScrn=  0.000000 ICntrl=     500 IOpCl=  0 I1Cent=   200000004 NGrid=           0
         NMat0=    1 NMatS0=      1 NMatT0=    0 NMatD0=    1 NMtDS0=    0 NMtDT0=    0
 Petite list used in FoFCou.
 Requested convergence on RMS density matrix=1.00D-08 within 128 cycles.
 Requested convergence on MAX density matrix=1.00D-06.
 Requested convergence on             energy=1.00D-06.
 No special actions if energy rises.
 Integral accuracy reduced to 1.0D-05 until final iterations.
 Initial convergence to 1.0D-05 achieved.  Increase integral accuracy.
 SCF Done:  E(RB3LYP) =  -1263.17610538     A.U. after   16 cycles
            NFock= 16  Conv=0.58D-08     -V/T= 2.0048
 DoSCS=F DFT=T ScalE2(SS,OS)=  1.000000  1.000000
 Range of M.O.s used for correlation:     1   283
 NBasis=   283 NAE=    97 NBE=    97 NFC=     0 NFV=     0
 NROrb=    283 NOA=    97 NOB=    97 NVA=   186 NVB=   186

 **** Warning!!: The largest alpha MO coefficient is  0.11420419D+02

          Differentiating once with respect to electric field.
                with respect to dipole field.
          Electric field/nuclear overlap derivatives assumed to be zero.
          There are     3 degrees of freedom in the 1st order CPHF.  IDoFFX=0 NUNeed=     3.
      3 vectors produced by pass  0 Test12= 6.01D-13 3.33D-08 XBig12= 4.90D+02 1.22D+01.
 AX will form     3 AO Fock derivatives at one time.
      3 vectors produced by pass  1 Test12= 6.01D-13 3.33D-08 XBig12= 1.60D+02 2.85D+00.
      3 vectors produced by pass  2 Test12= 6.01D-13 3.33D-08 XBig12= 2.10D+01 8.42D-01.
      3 vectors produced by pass  3 Test12= 6.01D-13 3.33D-08 XBig12= 1.63D+01 1.49D+00.
      3 vectors produced by pass  4 Test12= 6.01D-13 3.33D-08 XBig12= 3.51D+00 3.73D-01.
      3 vectors produced by pass  5 Test12= 6.01D-13 3.33D-08 XBig12= 1.31D+00 3.14D-01.
      3 vectors produced by pass  6 Test12= 6.01D-13 3.33D-08 XBig12= 5.12D-01 1.83D-01.
      3 vectors produced by pass  7 Test12= 6.01D-13 3.33D-08 XBig12= 1.18D-01 8.76D-02.
      3 vectors produced by pass  8 Test12= 6.01D-13 3.33D-08 XBig12= 2.53D-02 3.08D-02.
      3 vectors produced by pass  9 Test12= 6.01D-13 3.33D-08 XBig12= 6.66D-03 2.49D-02.
      3 vectors produced by pass 10 Test12= 6.01D-13 3.33D-08 XBig12= 1.21D-03 9.81D-03.
      3 vectors produced by pass 11 Test12= 6.01D-13 3.33D-08 XBig12= 6.30D-04 7.07D-03.
      3 vectors produced by pass 12 Test12= 6.01D-13 3.33D-08 XBig12= 1.07D-04 2.92D-03.
      3 vectors produced by pass 13 Test12= 6.01D-13 3.33D-08 XBig12= 2.82D-05 9.03D-04.
      3 vectors produced by pass 14 Test12= 6.01D-13 3.33D-08 XBig12= 1.40D-06 2.34D-04.
      3 vectors produced by pass 15 Test12= 6.01D-13 3.33D-08 XBig12= 2.81D-07 8.88D-05.
      3 vectors produced by pass 16 Test12= 6.01D-13 3.33D-08 XBig12= 4.15D-08 4.10D-05.
      3 vectors produced by pass 17 Test12= 6.01D-13 3.33D-08 XBig12= 2.16D-09 7.23D-06.
      3 vectors produced by pass 18 Test12= 6.01D-13 3.33D-08 XBig12= 2.69D-10 3.57D-06.
      3 vectors produced by pass 19 Test12= 6.01D-13 3.33D-08 XBig12= 9.05D-12 5.41D-07.
      3 vectors produced by pass 20 Test12= 6.01D-13 3.33D-08 XBig12= 9.11D-13 1.11D-07.
 InvSVY:  IOpt=1 It=  1 EMax= 5.33D-15
 Solved reduced A of dimension    63 with     3 vectors.
 End of Minotr F.D. properties file   721 does not exist.
 End of Minotr F.D. properties file   722 does not exist.
 End of Minotr F.D. properties file   788 does not exist.
 Symmetrizing basis deriv contribution to polar:
 IMax=3 JMax=2 DiffMx= 0.00D+00
 G2DrvN: will do    48 centers at a time, making    1 passes.
 PxScal for G2LodP:  IOpCl= 0 ISclPx=1 IMOff=     1 NMtTot=     4 NTT=   40186 ScalPx= 3.01D+00
 Calling FoFCou, ICntrl=  3107 FMM=F I1Cent=   0 AccDes= 0.00D+00.
 End of G2Drv F.D. properties file   721 does not exist.
 End of G2Drv F.D. properties file   722 does not exist.
 End of G2Drv F.D. properties file   788 does not exist.
          IDoAtm=11111111111111111111111111111111111111111111111
          Differentiating once with respect to electric field.
                with respect to dipole field.
          Differentiating once with respect to nuclear coordinates.
          There are   144 degrees of freedom in the 1st order CPHF.  IDoFFX=5 NUNeed=   144.
 Will reuse    3 saved solutions.
    138 vectors produced by pass  0 Test12= 1.80D-14 1.00D-09 XBig12= 1.51D-01 1.75D-01.
 AX will form   138 AO Fock derivatives at one time.
    138 vectors produced by pass  1 Test12= 1.80D-14 1.00D-09 XBig12= 2.84D-02 4.29D-02.
    138 vectors produced by pass  2 Test12= 1.80D-14 1.00D-09 XBig12= 1.54D-04 2.82D-03.
    138 vectors produced by pass  3 Test12= 1.80D-14 1.00D-09 XBig12= 3.64D-07 9.02D-05.
    138 vectors produced by pass  4 Test12= 1.80D-14 1.00D-09 XBig12= 4.66D-10 2.05D-06.
     87 vectors produced by pass  5 Test12= 1.80D-14 1.00D-09 XBig12= 3.44D-13 6.27D-08.
      3 vectors produced by pass  6 Test12= 1.80D-14 1.00D-09 XBig12= 2.72D-16 1.42D-09.
      2 vectors produced by pass  7 Test12= 1.80D-14 1.00D-09 XBig12= 2.12D-16 1.22D-09.
 InvSVY:  IOpt=1 It=  1 EMax= 6.11D-16
 Solved reduced A of dimension   782 with   144 vectors.
 Isotropic polarizability for W=    0.000000      267.05 Bohr**3.
 End of Minotr F.D. properties file   721 does not exist.
 End of Minotr F.D. properties file   722 does not exist.
 End of Minotr F.D. properties file   788 does not exist.

 **********************************************************************

            Population analysis using the SCF density.

 **********************************************************************

 Orbital symmetries:
       Occupied  (A) (A) (A) (A) (A) (A) (A) (A) (A) (A) (A) (A)
                 (A) (A) (A) (A) (A) (A) (A) (A) (A) (A) (A) (A)
                 (A) (A) (A) (A) (A) (A) (A) (A) (A) (A) (A) (A)
                 (A) (A) (A) (A) (A) (A) (A) (A) (A) (A) (A) (A)
                 (A) (A) (A) (A) (A) (A) (A) (A) (A) (A) (A) (A)
                 (A) (A) (A) (A) (A) (A) (A) (A) (A) (A) (A) (A)
                 (A) (A) (A) (A) (A) (A) (A) (A) (A) (A) (A) (A)
                 (A) (A) (A) (A) (A) (A) (A) (A) (A) (A) (A) (A)
                 (A)
       Virtual   (A) (A) (A) (A) (A) (A) (A) (A) (A) (A) (A) (A)
                 (A) (A) (A) (A) (A) (A) (A) (A) (A) (A) (A) (A)
                 (A) (A) (A) (A) (A) (A) (A) (A) (A) (A) (A) (A)
                 (A) (A) (A) (A) (A) (A) (A) (A) (A) (A) (A) (A)
                 (A) (A) (A) (A) (A) (A) (A) (A) (A) (A) (A) (A)
                 (A) (A) (A) (A) (A) (A) (A) (A) (A) (A) (A) (A)
                 (A) (A) (A) (A) (A) (A) (A) (A) (A) (A) (A) (A)
                 (A) (A) (A) (A) (A) (A) (A) (A) (A) (A) (A) (A)
                 (A) (A) (A) (A) (A) (A) (A) (A) (A) (A) (A) (A)
                 (A) (A) (A) (A) (A) (A) (A) (A) (A) (A) (A) (A)
                 (A) (A) (A) (A) (A) (A) (A) (A) (A) (A) (A) (A)
                 (A) (A) (A) (A) (A) (A) (A) (A) (A) (A) (A) (A)
                 (A) (A) (A) (A) (A) (A) (A) (A) (A) (A) (A) (A)
                 (A) (A) (A) (A) (A) (A) (A) (A) (A) (A) (A) (A)
                 (A) (A) (A) (A) (A) (A) (A) (A) (A) (A) (A) (A)
                 (A) (A) (A) (A) (A) (A)
 The electronic state is 1-A.
 Alpha  occ. eigenvalues --  -19.19373 -19.18484 -19.18146 -19.17556 -19.13626
 Alpha  occ. eigenvalues --  -19.12947 -10.28091 -10.27289 -10.26604 -10.26148
 Alpha  occ. eigenvalues --  -10.25686 -10.25643 -10.25377 -10.24446 -10.21097
 Alpha  occ. eigenvalues --  -10.20459 -10.20422 -10.20032 -10.19957 -10.19851
 Alpha  occ. eigenvalues --  -10.19536 -10.19401 -10.19387 -10.19321 -10.19053
 Alpha  occ. eigenvalues --  -10.18756 -10.18380  -1.09998  -1.09326  -1.07683
 Alpha  occ. eigenvalues --   -1.07073  -1.05657  -1.04574  -0.88162  -0.87334
 Alpha  occ. eigenvalues --   -0.81592  -0.80738  -0.78398  -0.77345  -0.76864
 Alpha  occ. eigenvalues --   -0.75756  -0.74630  -0.71590  -0.71252  -0.66530
 Alpha  occ. eigenvalues --   -0.64752  -0.63656  -0.62651  -0.60371  -0.58538
 Alpha  occ. eigenvalues --   -0.57131  -0.56696  -0.54765  -0.53542  -0.52926
 Alpha  occ. eigenvalues --   -0.51064  -0.50483  -0.50112  -0.49602  -0.49251
 Alpha  occ. eigenvalues --   -0.48483  -0.48433  -0.47013  -0.46574  -0.46092
 Alpha  occ. eigenvalues --   -0.45689  -0.44245  -0.43410  -0.43234  -0.42912
 Alpha  occ. eigenvalues --   -0.42584  -0.42368  -0.41900  -0.40424  -0.40345
 Alpha  occ. eigenvalues --   -0.39434  -0.38632  -0.38155  -0.37252  -0.36769
 Alpha  occ. eigenvalues --   -0.36393  -0.36004  -0.35808  -0.35467  -0.35418
 Alpha  occ. eigenvalues --   -0.34250  -0.34150  -0.33755  -0.32931  -0.28678
 Alpha  occ. eigenvalues --   -0.27715  -0.25504  -0.25064  -0.24552  -0.23909
 Alpha  occ. eigenvalues --   -0.21442  -0.20821
 Alpha virt. eigenvalues --   -0.07073  -0.05659  -0.00903  -0.00050   0.01251
 Alpha virt. eigenvalues --    0.01875   0.04942   0.05871   0.06905   0.07113
 Alpha virt. eigenvalues --    0.07989   0.09071   0.09497   0.10143   0.11030
 Alpha virt. eigenvalues --    0.11692   0.12440   0.13472   0.13712   0.13920
 Alpha virt. eigenvalues --    0.14367   0.15061   0.15499   0.15784   0.16079
 Alpha virt. eigenvalues --    0.16379   0.16961   0.17528   0.18711   0.19042
 Alpha virt. eigenvalues --    0.19856   0.21116   0.22228   0.22855   0.23776
 Alpha virt. eigenvalues --    0.25264   0.25775   0.26653   0.27937   0.29347
 Alpha virt. eigenvalues --    0.31684   0.32512   0.32762   0.32918   0.33339
 Alpha virt. eigenvalues --    0.34539   0.36227   0.36440   0.36955   0.37221
 Alpha virt. eigenvalues --    0.40875   0.41292   0.43815   0.45085   0.49171
 Alpha virt. eigenvalues --    0.49411   0.50325   0.50904   0.51862   0.52350
 Alpha virt. eigenvalues --    0.53073   0.53803   0.53952   0.54373   0.55740
 Alpha virt. eigenvalues --    0.56001   0.56429   0.56977   0.57466   0.58260
 Alpha virt. eigenvalues --    0.59478   0.59679   0.60492   0.60713   0.60877
 Alpha virt. eigenvalues --    0.61094   0.61421   0.61904   0.62240   0.62606
 Alpha virt. eigenvalues --    0.63613   0.63700   0.63788   0.64450   0.64612
 Alpha virt. eigenvalues --    0.65198   0.65439   0.65747   0.66896   0.67338
 Alpha virt. eigenvalues --    0.68608   0.69202   0.69489   0.70204   0.70996
 Alpha virt. eigenvalues --    0.71653   0.72779   0.73808   0.74295   0.74575
 Alpha virt. eigenvalues --    0.77739   0.77859   0.77979   0.78806   0.79414
 Alpha virt. eigenvalues --    0.81474   0.83103   0.83793   0.84351   0.84684
 Alpha virt. eigenvalues --    0.85095   0.85583   0.87019   0.87620   0.87953
 Alpha virt. eigenvalues --    0.88758   0.89639   0.89922   0.90149   0.90264
 Alpha virt. eigenvalues --    0.90527   0.91721   0.93019   0.94388   0.94731
 Alpha virt. eigenvalues --    0.95661   0.96236   0.96329   0.97139   0.97890
 Alpha virt. eigenvalues --    0.98405   0.99565   1.00743   1.01099   1.02154
 Alpha virt. eigenvalues --    1.03550   1.03932   1.05106   1.05356   1.05426
 Alpha virt. eigenvalues --    1.06373   1.07664   1.08727   1.09589   1.09804
 Alpha virt. eigenvalues --    1.10294   1.10536   1.13458   1.13923   1.15140
 Alpha virt. eigenvalues --    1.15458   1.16583   1.17834   1.18377   1.19062
 Alpha virt. eigenvalues --    1.20875   1.22846   1.25182   1.26245   1.26961
 Alpha virt. eigenvalues --    1.27578   1.28611   1.29552   1.33357   1.34393
 Alpha virt. eigenvalues --    1.36568   1.37678   1.39060   1.39157   1.41530
 Alpha virt. eigenvalues --    1.41774   1.44443   1.48228   1.53254   1.54582
 Alpha virt. eigenvalues --    1.62232   1.62524   1.64245   1.82080   1.82727
 Alpha virt. eigenvalues --    1.89968   1.94636   1.94797   1.98026   2.22818
 Alpha virt. eigenvalues --    2.24956
          Condensed to atoms (all electrons):
               1          2          3          4          5          6
     1  O    8.411086   0.000000  -0.004130   0.000000   0.000000   0.000000
     2  O    0.000000   8.334392   0.000000   0.005347   0.000000   0.000000
     3  O   -0.004130   0.000000   8.244412   0.000000   0.000000   0.000000
     4  O    0.000000   0.005347   0.000000   8.230218   0.000000   0.000000
     5  O    0.000000   0.000000   0.000000   0.000000   8.059335  -0.000233
     6  O    0.000000   0.000000   0.000000   0.000000  -0.000233   8.082283
     7  C    0.006471   0.000000  -0.000573   0.000000   0.000650   0.000005
     8  C    0.000000   0.006069   0.000000  -0.000651   0.000000   0.000959
     9  C    0.000000   0.000000   0.000000   0.000000  -0.098713  -0.130404
    10  C   -0.085590   0.000000   0.007259   0.000000  -0.000016   0.000000
    11  C    0.000000  -0.089108   0.000000   0.005065   0.000000  -0.000018
    12  C    0.235253   0.000000  -0.108388   0.000000   0.000000   0.000000
    13  C    0.000000   0.255897   0.000000  -0.069062   0.000000   0.000000
    14  C    0.000212   0.000000   0.004331   0.000000  -0.000007  -0.000006
    15  C    0.000000   0.000020   0.000000   0.007145   0.000000  -0.000008
    16  C   -0.000088   0.000000  -0.000001   0.000000   0.010104   0.000113
    17  C    0.000000  -0.000085   0.000000  -0.000002   0.000001   0.011171
    18  C   -0.083867   0.000000   0.277450   0.000000   0.000000   0.000000
    19  C    0.000000  -0.067682   0.000000   0.267823   0.000000   0.000000
    20  C    0.000000   0.000000   0.000000   0.000000   0.565505   0.012962
    21  C    0.000000   0.000000   0.000000   0.000000   0.000147   0.578169
    22  C    0.002403   0.000000  -0.062997   0.000000   0.000000   0.000000
    23  C    0.000000   0.003753   0.000000  -0.099214   0.000000   0.000000
    24  C    0.000000   0.000000   0.000000   0.000000  -0.143165  -0.000183
    25  C    0.000000   0.000000   0.000000   0.000000  -0.000101  -0.147882
    26  C    0.209355   0.000000  -0.000044   0.000000   0.000000   0.000000
    27  C    0.000000   0.210561   0.000000  -0.000055   0.000000   0.000000
    28  H    0.000000   0.000000   0.000000   0.000000   0.005493   0.000173
    29  H    0.000000   0.000000   0.000000   0.000000   0.001699   0.003170
    30  H   -0.010514   0.000000  -0.000027   0.000000   0.000000   0.000000
    31  H    0.000000  -0.010443   0.000000  -0.000033   0.000000   0.000000
    32  H    0.000001   0.000000  -0.000054   0.000000  -0.000002   0.000006
    33  H    0.000000   0.000001   0.000000  -0.000055   0.000000   0.000001
    34  H    0.000002   0.000000   0.000000   0.000000   0.010610  -0.000001
    35  H    0.000000   0.000002   0.000000   0.000000   0.000000   0.014111
    36  H   -0.000049   0.000000  -0.001719   0.000000   0.000000   0.000000
    37  H    0.000000  -0.000051   0.000000  -0.007193   0.000000   0.000000
    38  H    0.000000   0.000000   0.000000   0.000000   0.002731   0.001856
    39  H    0.000000   0.000000   0.000000   0.000000   0.000001   0.002927
    40  H    0.016366   0.000000   0.256322   0.000000   0.000000   0.000000
    41  H    0.000000  -0.000182   0.000000   0.252164   0.000000   0.000000
    42  H   -0.041125   0.000000  -0.000007   0.000000   0.000000   0.000000
    43  H   -0.040853   0.000000  -0.000007   0.000000   0.000000   0.000000
    44  H   -0.033736   0.000000   0.000000   0.000000   0.000000   0.000000
    45  H    0.000000  -0.040822   0.000000   0.000003   0.000000   0.000000
    46  H    0.000000  -0.040808   0.000000   0.000003   0.000000   0.000000
    47  H    0.000000  -0.033907   0.000000  -0.000009   0.000000   0.000000
               7          8          9         10         11         12
     1  O    0.006471   0.000000   0.000000  -0.085590   0.000000   0.235253
     2  O    0.000000   0.006069   0.000000   0.000000  -0.089108   0.000000
     3  O   -0.000573   0.000000   0.000000   0.007259   0.000000  -0.108388
     4  O    0.000000  -0.000651   0.000000   0.000000   0.005065   0.000000
     5  O    0.000650   0.000000  -0.098713  -0.000016   0.000000   0.000000
     6  O    0.000005   0.000959  -0.130404   0.000000  -0.000018   0.000000
     7  C    4.884089   0.000000  -0.000216   0.394423   0.000000   0.023447
     8  C    0.000000   4.887386  -0.000139   0.000000   0.400607   0.000000
     9  C   -0.000216  -0.000139   6.050488  -0.000002  -0.000001   0.000000
    10  C    0.394423   0.000000  -0.000002   5.417187   0.000000   0.253601
    11  C    0.000000   0.400607  -0.000001   0.000000   5.426839   0.000000
    12  C    0.023447   0.000000   0.000000   0.253601   0.000000   5.304086
    13  C    0.000000  -0.001163   0.000000   0.000000   0.355705   0.000000
    14  C    0.527326   0.000000   0.000017  -0.085570   0.000000  -0.034427
    15  C    0.000000   0.520252  -0.000005   0.000000  -0.080106   0.000000
    16  C    0.314932   0.000000   0.009449  -0.016309   0.000000   0.005852
    17  C    0.000000   0.308208   0.013254   0.000000  -0.013105   0.000000
    18  C   -0.027359   0.000000   0.000000  -0.041353   0.000000   0.274242
    19  C    0.000000  -0.017930   0.000000   0.000000  -0.144324   0.000000
    20  C    0.007086   0.000001   0.135580  -0.000366   0.000000   0.000002
    21  C    0.000013   0.007771   0.117299   0.000000  -0.000336   0.000000
    22  C   -0.036785   0.000000   0.000000  -0.043141   0.000000  -0.096196
    23  C    0.000000  -0.019576   0.000000   0.000000  -0.057033   0.000000
    24  C   -0.039257   0.000000  -0.178509   0.005962   0.000000  -0.000379
    25  C    0.000000  -0.037299  -0.147799   0.000000   0.005810   0.000000
    26  C    0.001001   0.000000   0.000000  -0.006918   0.000000  -0.046862
    27  C    0.000000   0.001156   0.000000   0.000000  -0.008827   0.000000
    28  H    0.000001   0.000004   0.317697   0.000000   0.000000   0.000000
    29  H   -0.000009  -0.000006   0.326041   0.000000   0.000000   0.000000
    30  H   -0.037209   0.000000   0.000000   0.361699   0.000000  -0.051764
    31  H    0.000000  -0.039535   0.000000   0.000000   0.361393   0.000000
    32  H   -0.032489   0.000000   0.000009   0.005158   0.000000   0.000630
    33  H    0.000000  -0.030437   0.000015   0.000000   0.005342   0.000000
    34  H   -0.043973   0.000000   0.001184  -0.005643   0.000000   0.000561
    35  H    0.000000  -0.042921   0.001278   0.000000  -0.005386   0.000000
    36  H    0.003940   0.000000   0.000000   0.000605   0.000000   0.007535
    37  H    0.000000   0.003741   0.000000   0.000000   0.001300   0.000000
    38  H   -0.009265   0.000000  -0.000725   0.000193   0.000000   0.000013
    39  H    0.000000  -0.008163  -0.000710   0.000000   0.000251   0.000000
    40  H   -0.000144   0.000000   0.000000   0.002140   0.000000  -0.011837
    41  H    0.000000  -0.000064   0.000000   0.000000  -0.000003   0.000000
    42  H   -0.000207   0.000000   0.000000   0.005615   0.000000  -0.006500
    43  H   -0.000149   0.000000   0.000000   0.005725   0.000000  -0.006476
    44  H   -0.000004   0.000000   0.000000   0.000169   0.000000   0.003696
    45  H    0.000000  -0.000151   0.000000   0.000000   0.007278   0.000000
    46  H    0.000000  -0.000175   0.000000   0.000000   0.007034   0.000000
    47  H    0.000000  -0.000005   0.000000   0.000000  -0.000046   0.000000
              13         14         15         16         17         18
     1  O    0.000000   0.000212   0.000000  -0.000088   0.000000  -0.083867
     2  O    0.255897   0.000000   0.000020   0.000000  -0.000085   0.000000
     3  O    0.000000   0.004331   0.000000  -0.000001   0.000000   0.277450
     4  O   -0.069062   0.000000   0.007145   0.000000  -0.000002   0.000000
     5  O    0.000000  -0.000007   0.000000   0.010104   0.000001   0.000000
     6  O    0.000000  -0.000006  -0.000008   0.000113   0.011171   0.000000
     7  C    0.000000   0.527326   0.000000   0.314932   0.000000  -0.027359
     8  C   -0.001163   0.000000   0.520252   0.000000   0.308208   0.000000
     9  C    0.000000   0.000017  -0.000005   0.009449   0.013254   0.000000
    10  C    0.000000  -0.085570   0.000000  -0.016309   0.000000  -0.041353
    11  C    0.355705   0.000000  -0.080106   0.000000  -0.013105   0.000000
    12  C    0.000000  -0.034427   0.000000   0.005852   0.000000   0.274242
    13  C    5.086244   0.000000  -0.021948   0.000000   0.005757   0.000000
    14  C    0.000000   5.011287   0.000000  -0.045970   0.000000  -0.051665
    15  C   -0.021948   0.000000   5.049530   0.000000  -0.049565   0.000000
    16  C    0.000000  -0.045970   0.000000   5.048586   0.000000   0.000969
    17  C    0.005757   0.000000  -0.049565   0.000000   5.072316   0.000000
    18  C    0.000000  -0.051665   0.000000   0.000969   0.000000   4.937478
    19  C    0.318760   0.000000  -0.021427   0.000000   0.000995   0.000000
    20  C    0.000000   0.000371   0.000000   0.005262  -0.000211   0.000000
    21  C    0.000001  -0.000009   0.000339   0.000320   0.001059   0.000000
    22  C    0.000000   0.491006   0.000000   0.008077   0.000000   0.511606
    23  C   -0.117592   0.000000   0.393484   0.000000   0.009313   0.000000
    24  C    0.000000  -0.011031   0.000000   0.484041  -0.000008   0.000000
    25  C   -0.000309   0.000000  -0.011484  -0.000002   0.462065   0.000000
    26  C    0.000000   0.000018   0.000000  -0.000025   0.000000   0.004722
    27  C   -0.047255   0.000000   0.000018   0.000000  -0.000032   0.000000
    28  H    0.000000   0.000000   0.000000  -0.000159  -0.000433   0.000000
    29  H    0.000000  -0.000001   0.000001  -0.000778   0.000026   0.000000
    30  H    0.000000   0.005263   0.000000  -0.005861   0.000000   0.001100
    31  H   -0.049116   0.000000   0.005310   0.000000  -0.005483   0.000000
    32  H    0.000000   0.349053   0.000000  -0.008910   0.000000   0.004790
    33  H    0.000615   0.000000   0.345156   0.000000  -0.009596   0.000000
    34  H    0.000000   0.004900   0.000000   0.368411   0.000000  -0.000017
    35  H    0.000440   0.000000   0.004792   0.000000   0.366857   0.000000
    36  H    0.000000  -0.032750   0.000000  -0.000230   0.000000  -0.024833
    37  H    0.003328   0.000000  -0.018668   0.000000  -0.000271   0.000000
    38  H    0.000000   0.003049   0.000000  -0.041826   0.000015  -0.000012
    39  H    0.000014   0.000000   0.002385  -0.000001  -0.050138   0.000000
    40  H    0.000000  -0.000156   0.000000   0.000000   0.000000  -0.043968
    41  H    0.012741   0.000000   0.000919   0.000000  -0.000001   0.000000
    42  H    0.000000   0.000002   0.000000  -0.000002   0.000000  -0.000523
    43  H    0.000000  -0.000002   0.000000   0.000001   0.000000  -0.000518
    44  H    0.000000   0.000000   0.000000   0.000000   0.000000   0.000056
    45  H   -0.008817   0.000000  -0.000004   0.000000   0.000005   0.000000
    46  H   -0.008753   0.000000   0.000003   0.000000  -0.000003   0.000000
    47  H    0.004081   0.000000   0.000000   0.000000   0.000000   0.000000
              19         20         21         22         23         24
     1  O    0.000000   0.000000   0.000000   0.002403   0.000000   0.000000
     2  O   -0.067682   0.000000   0.000000   0.000000   0.003753   0.000000
     3  O    0.000000   0.000000   0.000000  -0.062997   0.000000   0.000000
     4  O    0.267823   0.000000   0.000000   0.000000  -0.099214   0.000000
     5  O    0.000000   0.565505   0.000147   0.000000   0.000000  -0.143165
     6  O    0.000000   0.012962   0.578169   0.000000   0.000000  -0.000183
     7  C    0.000000   0.007086   0.000013  -0.036785   0.000000  -0.039257
     8  C   -0.017930   0.000001   0.007771   0.000000  -0.019576   0.000000
     9  C    0.000000   0.135580   0.117299   0.000000   0.000000  -0.178509
    10  C    0.000000  -0.000366   0.000000  -0.043141   0.000000   0.005962
    11  C   -0.144324   0.000000  -0.000336   0.000000  -0.057033   0.000000
    12  C    0.000000   0.000002   0.000000  -0.096196   0.000000  -0.000379
    13  C    0.318760   0.000000   0.000001   0.000000  -0.117592   0.000000
    14  C    0.000000   0.000371  -0.000009   0.491006   0.000000  -0.011031
    15  C   -0.021427   0.000000   0.000339   0.000000   0.393484   0.000000
    16  C    0.000000   0.005262   0.000320   0.008077   0.000000   0.484041
    17  C    0.000995  -0.000211   0.001059   0.000000   0.009313  -0.000008
    18  C    0.000000   0.000000   0.000000   0.511606   0.000000   0.000000
    19  C    5.048980   0.000000   0.000000   0.000000   0.420497   0.000000
    20  C    0.000000   4.842141  -0.004152  -0.000012   0.000000   0.184258
    21  C    0.000000  -0.004152   4.866996   0.000000  -0.000012   0.007813
    22  C    0.000000  -0.000012   0.000000   5.041165   0.000000   0.000319
    23  C    0.420497   0.000000  -0.000012   0.000000   5.330608   0.000000
    24  C    0.000000   0.184258   0.007813   0.000319   0.000000   5.519359
    25  C    0.000012   0.003177   0.165773   0.000000   0.000273   0.000282
    26  C    0.000000   0.000000   0.000000  -0.000097   0.000000   0.000000
    27  C    0.006964   0.000000   0.000000   0.000000  -0.000083   0.000000
    28  H    0.000000  -0.011605  -0.018618   0.000000   0.000000   0.007167
    29  H    0.000000  -0.030687  -0.020867   0.000000   0.000000   0.004361
    30  H    0.000000   0.000000   0.000000   0.000492   0.000000   0.000354
    31  H    0.001668   0.000000  -0.000001   0.000000   0.000484   0.000000
    32  H    0.000000   0.000014   0.000004  -0.031980   0.000000   0.004317
    33  H    0.003736   0.000000   0.000060   0.000000  -0.031505   0.000000
    34  H    0.000000  -0.002600  -0.000016  -0.000180   0.000000  -0.065663
    35  H   -0.000011  -0.000008  -0.002326   0.000000  -0.000212   0.000000
    36  H    0.000000   0.000000   0.000000   0.338529   0.000000   0.000015
    37  H   -0.047520   0.000000   0.000000   0.000000   0.345368   0.000000
    38  H    0.000000  -0.029189   0.003327  -0.000052   0.000000   0.350453
    39  H   -0.000015   0.000233  -0.030222   0.000000  -0.000006  -0.000007
    40  H    0.000000   0.000000   0.000000   0.006989   0.000000   0.000000
    41  H   -0.036820   0.000000   0.000000   0.000000  -0.012916   0.000000
    42  H    0.000000   0.000000   0.000000  -0.000022   0.000000   0.000000
    43  H    0.000000   0.000000   0.000000  -0.000021   0.000000   0.000000
    44  H    0.000000   0.000000   0.000000   0.000006   0.000000   0.000000
    45  H   -0.000807   0.000000   0.000000   0.000000  -0.000019   0.000000
    46  H   -0.000813   0.000000   0.000000   0.000000  -0.000021   0.000000
    47  H    0.000136   0.000000   0.000000   0.000000   0.000005   0.000000
              25         26         27         28         29         30
     1  O    0.000000   0.209355   0.000000   0.000000   0.000000  -0.010514
     2  O    0.000000   0.000000   0.210561   0.000000   0.000000   0.000000
     3  O    0.000000  -0.000044   0.000000   0.000000   0.000000  -0.000027
     4  O    0.000000   0.000000  -0.000055   0.000000   0.000000   0.000000
     5  O   -0.000101   0.000000   0.000000   0.005493   0.001699   0.000000
     6  O   -0.147882   0.000000   0.000000   0.000173   0.003170   0.000000
     7  C    0.000000   0.001001   0.000000   0.000001  -0.000009  -0.037209
     8  C   -0.037299   0.000000   0.001156   0.000004  -0.000006   0.000000
     9  C   -0.147799   0.000000   0.000000   0.317697   0.326041   0.000000
    10  C    0.000000  -0.006918   0.000000   0.000000   0.000000   0.361699
    11  C    0.005810   0.000000  -0.008827   0.000000   0.000000   0.000000
    12  C    0.000000  -0.046862   0.000000   0.000000   0.000000  -0.051764
    13  C   -0.000309   0.000000  -0.047255   0.000000   0.000000   0.000000
    14  C    0.000000   0.000018   0.000000   0.000000  -0.000001   0.005263
    15  C   -0.011484   0.000000   0.000018   0.000000   0.000001   0.000000
    16  C   -0.000002  -0.000025   0.000000  -0.000159  -0.000778  -0.005861
    17  C    0.462065   0.000000  -0.000032  -0.000433   0.000026   0.000000
    18  C    0.000000   0.004722   0.000000   0.000000   0.000000   0.001100
    19  C    0.000012   0.000000   0.006964   0.000000   0.000000   0.000000
    20  C    0.003177   0.000000   0.000000  -0.011605  -0.030687   0.000000
    21  C    0.165773   0.000000   0.000000  -0.018618  -0.020867   0.000000
    22  C    0.000000  -0.000097   0.000000   0.000000   0.000000   0.000492
    23  C    0.000273   0.000000  -0.000083   0.000000   0.000000   0.000000
    24  C    0.000282   0.000000   0.000000   0.007167   0.004361   0.000354
    25  C    5.565380   0.000000   0.000000   0.001573   0.002218   0.000000
    26  C    0.000000   4.894764   0.000000   0.000000   0.000000   0.008112
    27  C    0.000000   0.000000   4.907041   0.000000   0.000000   0.000000
    28  H    0.001573   0.000000   0.000000   0.522658  -0.021442   0.000000
    29  H    0.002218   0.000000   0.000000  -0.021442   0.569409   0.000000
    30  H    0.000000   0.008112   0.000000   0.000000   0.000000   0.572480
    31  H    0.000345   0.000000   0.007588   0.000000   0.000000   0.000000
    32  H    0.000001   0.000000   0.000000   0.000000  -0.000002  -0.000168
    33  H    0.004740   0.000000   0.000000   0.000000  -0.000001   0.000000
    34  H    0.000000  -0.000006   0.000000  -0.000010  -0.000072   0.005186
    35  H   -0.064518   0.000000  -0.000005  -0.000016  -0.000027   0.000000
    36  H    0.000000   0.000002   0.000000   0.000000   0.000000   0.000012
    37  H    0.000019   0.000000   0.000002   0.000000   0.000000   0.000000
    38  H    0.000015   0.000000   0.000000   0.000062   0.000152   0.000009
    39  H    0.352181   0.000000   0.000000   0.000381   0.002512   0.000000
    40  H    0.000000  -0.000533   0.000000   0.000000   0.000000   0.000011
    41  H    0.000000   0.000000   0.000005   0.000000   0.000000   0.000000
    42  H    0.000000   0.363985   0.000000   0.000000   0.000000   0.001896
    43  H    0.000000   0.364668   0.000000   0.000000   0.000000   0.001686
    44  H    0.000000   0.377501   0.000000   0.000000   0.000000  -0.000013
    45  H    0.000001   0.000000   0.359731   0.000000   0.000000   0.000000
    46  H   -0.000001   0.000000   0.360089   0.000000   0.000000   0.000000
    47  H    0.000000   0.000000   0.379537   0.000000   0.000000   0.000000
              31         32         33         34         35         36
     1  O    0.000000   0.000001   0.000000   0.000002   0.000000  -0.000049
     2  O   -0.010443   0.000000   0.000001   0.000000   0.000002   0.000000
     3  O    0.000000  -0.000054   0.000000   0.000000   0.000000  -0.001719
     4  O   -0.000033   0.000000  -0.000055   0.000000   0.000000   0.000000
     5  O    0.000000  -0.000002   0.000000   0.010610   0.000000   0.000000
     6  O    0.000000   0.000006   0.000001  -0.000001   0.014111   0.000000
     7  C    0.000000  -0.032489   0.000000  -0.043973   0.000000   0.003940
     8  C   -0.039535   0.000000  -0.030437   0.000000  -0.042921   0.000000
     9  C    0.000000   0.000009   0.000015   0.001184   0.001278   0.000000
    10  C    0.000000   0.005158   0.000000  -0.005643   0.000000   0.000605
    11  C    0.361393   0.000000   0.005342   0.000000  -0.005386   0.000000
    12  C    0.000000   0.000630   0.000000   0.000561   0.000000   0.007535
    13  C   -0.049116   0.000000   0.000615   0.000000   0.000440   0.000000
    14  C    0.000000   0.349053   0.000000   0.004900   0.000000  -0.032750
    15  C    0.005310   0.000000   0.345156   0.000000   0.004792   0.000000
    16  C    0.000000  -0.008910   0.000000   0.368411   0.000000  -0.000230
    17  C   -0.005483   0.000000  -0.009596   0.000000   0.366857   0.000000
    18  C    0.000000   0.004790   0.000000  -0.000017   0.000000  -0.024833
    19  C    0.001668   0.000000   0.003736   0.000000  -0.000011   0.000000
    20  C    0.000000   0.000014   0.000000  -0.002600  -0.000008   0.000000
    21  C   -0.000001   0.000004   0.000060  -0.000016  -0.002326   0.000000
    22  C    0.000000  -0.031980   0.000000  -0.000180   0.000000   0.338529
    23  C    0.000484   0.000000  -0.031505   0.000000  -0.000212   0.000000
    24  C    0.000000   0.004317   0.000000  -0.065663   0.000000   0.000015
    25  C    0.000345   0.000001   0.004740   0.000000  -0.064518   0.000000
    26  C    0.000000   0.000000   0.000000  -0.000006   0.000000   0.000002
    27  C    0.007588   0.000000   0.000000   0.000000  -0.000005   0.000000
    28  H    0.000000   0.000000   0.000000  -0.000010  -0.000016   0.000000
    29  H    0.000000  -0.000002  -0.000001  -0.000072  -0.000027   0.000000
    30  H    0.000000  -0.000168   0.000000   0.005186   0.000000   0.000012
    31  H    0.563253   0.000000  -0.000165   0.000000   0.004921   0.000000
    32  H    0.000000   0.564191   0.000000   0.000112   0.000000  -0.004284
    33  H   -0.000165   0.000000   0.577220   0.000000   0.000100   0.000000
    34  H    0.000000   0.000112   0.000000   0.569791   0.000000   0.000002
    35  H    0.004921   0.000000   0.000100   0.000000   0.555039   0.000000
    36  H    0.000000  -0.004284   0.000000   0.000002   0.000000   0.568522
    37  H    0.000013   0.000000  -0.004170   0.000000   0.000002   0.000000
    38  H    0.000000   0.003765   0.000000   0.004703   0.000004   0.000009
    39  H    0.000009   0.000000   0.004551   0.000000   0.004557   0.000000
    40  H    0.000000   0.000004   0.000000   0.000000   0.000000  -0.000199
    41  H    0.000004   0.000000  -0.000012   0.000000   0.000000   0.000000
    42  H    0.000000   0.000000   0.000000  -0.000015   0.000000   0.000000
    43  H    0.000000   0.000000   0.000000   0.000005   0.000000   0.000000
    44  H    0.000000   0.000000   0.000000   0.000000   0.000000   0.000000
    45  H    0.002281   0.000000   0.000000   0.000000   0.000004   0.000000
    46  H    0.002434   0.000000   0.000000   0.000000  -0.000015   0.000000
    47  H   -0.000117   0.000000   0.000000   0.000000   0.000000   0.000000
              37         38         39         40         41         42
     1  O    0.000000   0.000000   0.000000   0.016366   0.000000  -0.041125
     2  O   -0.000051   0.000000   0.000000   0.000000  -0.000182   0.000000
     3  O    0.000000   0.000000   0.000000   0.256322   0.000000  -0.000007
     4  O   -0.007193   0.000000   0.000000   0.000000   0.252164   0.000000
     5  O    0.000000   0.002731   0.000001   0.000000   0.000000   0.000000
     6  O    0.000000   0.001856   0.002927   0.000000   0.000000   0.000000
     7  C    0.000000  -0.009265   0.000000  -0.000144   0.000000  -0.000207
     8  C    0.003741   0.000000  -0.008163   0.000000  -0.000064   0.000000
     9  C    0.000000  -0.000725  -0.000710   0.000000   0.000000   0.000000
    10  C    0.000000   0.000193   0.000000   0.002140   0.000000   0.005615
    11  C    0.001300   0.000000   0.000251   0.000000  -0.000003   0.000000
    12  C    0.000000   0.000013   0.000000  -0.011837   0.000000  -0.006500
    13  C    0.003328   0.000000   0.000014   0.000000   0.012741   0.000000
    14  C    0.000000   0.003049   0.000000  -0.000156   0.000000   0.000002
    15  C   -0.018668   0.000000   0.002385   0.000000   0.000919   0.000000
    16  C    0.000000  -0.041826  -0.000001   0.000000   0.000000  -0.000002
    17  C   -0.000271   0.000015  -0.050138   0.000000  -0.000001   0.000000
    18  C    0.000000  -0.000012   0.000000  -0.043968   0.000000  -0.000523
    19  C   -0.047520   0.000000  -0.000015   0.000000  -0.036820   0.000000
    20  C    0.000000  -0.029189   0.000233   0.000000   0.000000   0.000000
    21  C    0.000000   0.003327  -0.030222   0.000000   0.000000   0.000000
    22  C    0.000000  -0.000052   0.000000   0.006989   0.000000  -0.000022
    23  C    0.345368   0.000000  -0.000006   0.000000  -0.012916   0.000000
    24  C    0.000000   0.350453  -0.000007   0.000000   0.000000   0.000000
    25  C    0.000019   0.000015   0.352181   0.000000   0.000000   0.000000
    26  C    0.000000   0.000000   0.000000  -0.000533   0.000000   0.363985
    27  C    0.000002   0.000000   0.000000   0.000000   0.000005   0.000000
    28  H    0.000000   0.000062   0.000381   0.000000   0.000000   0.000000
    29  H    0.000000   0.000152   0.002512   0.000000   0.000000   0.000000
    30  H    0.000000   0.000009   0.000000   0.000011   0.000000   0.001896
    31  H    0.000013   0.000000   0.000009   0.000000   0.000004   0.000000
    32  H    0.000000   0.003765   0.000000   0.000004   0.000000   0.000000
    33  H   -0.004170   0.000000   0.004551   0.000000  -0.000012   0.000000
    34  H    0.000000   0.004703   0.000000   0.000000   0.000000  -0.000015
    35  H    0.000002   0.000004   0.004557   0.000000   0.000000   0.000000
    36  H    0.000000   0.000009   0.000000  -0.000199   0.000000   0.000000
    37  H    0.591516   0.000000   0.000012   0.000000   0.006395   0.000000
    38  H    0.000000   0.568406   0.000004   0.000000   0.000000   0.000000
    39  H    0.000012   0.000004   0.590116   0.000000   0.000000   0.000000
    40  H    0.000000   0.000000   0.000000   0.384421   0.000000   0.000055
    41  H    0.006395   0.000000   0.000000   0.000000   0.402787   0.000000
    42  H    0.000000   0.000000   0.000000   0.000055   0.000000   0.599950
    43  H    0.000000   0.000000   0.000000   0.000056   0.000000  -0.046137
    44  H    0.000000   0.000000   0.000000  -0.000096   0.000000  -0.034942
    45  H    0.000000   0.000000   0.000000   0.000000   0.000000   0.000000
    46  H    0.000000   0.000000   0.000000   0.000000   0.000000   0.000000
    47  H    0.000000   0.000000   0.000000   0.000000   0.000000   0.000000
              43         44         45         46         47
     1  O   -0.040853  -0.033736   0.000000   0.000000   0.000000
     2  O    0.000000   0.000000  -0.040822  -0.040808  -0.033907
     3  O   -0.000007   0.000000   0.000000   0.000000   0.000000
     4  O    0.000000   0.000000   0.000003   0.000003  -0.000009
     5  O    0.000000   0.000000   0.000000   0.000000   0.000000
     6  O    0.000000   0.000000   0.000000   0.000000   0.000000
     7  C   -0.000149  -0.000004   0.000000   0.000000   0.000000
     8  C    0.000000   0.000000  -0.000151  -0.000175  -0.000005
     9  C    0.000000   0.000000   0.000000   0.000000   0.000000
    10  C    0.005725   0.000169   0.000000   0.000000   0.000000
    11  C    0.000000   0.000000   0.007278   0.007034  -0.000046
    12  C   -0.006476   0.003696   0.000000   0.000000   0.000000
    13  C    0.000000   0.000000  -0.008817  -0.008753   0.004081
    14  C   -0.000002   0.000000   0.000000   0.000000   0.000000
    15  C    0.000000   0.000000  -0.000004   0.000003   0.000000
    16  C    0.000001   0.000000   0.000000   0.000000   0.000000
    17  C    0.000000   0.000000   0.000005  -0.000003   0.000000
    18  C   -0.000518   0.000056   0.000000   0.000000   0.000000
    19  C    0.000000   0.000000  -0.000807  -0.000813   0.000136
    20  C    0.000000   0.000000   0.000000   0.000000   0.000000
    21  C    0.000000   0.000000   0.000000   0.000000   0.000000
    22  C   -0.000021   0.000006   0.000000   0.000000   0.000000
    23  C    0.000000   0.000000  -0.000019  -0.000021   0.000005
    24  C    0.000000   0.000000   0.000000   0.000000   0.000000
    25  C    0.000000   0.000000   0.000001  -0.000001   0.000000
    26  C    0.364668   0.377501   0.000000   0.000000   0.000000
    27  C    0.000000   0.000000   0.359731   0.360089   0.379537
    28  H    0.000000   0.000000   0.000000   0.000000   0.000000
    29  H    0.000000   0.000000   0.000000   0.000000   0.000000
    30  H    0.001686  -0.000013   0.000000   0.000000   0.000000
    31  H    0.000000   0.000000   0.002281   0.002434  -0.000117
    32  H    0.000000   0.000000   0.000000   0.000000   0.000000
    33  H    0.000000   0.000000   0.000000   0.000000   0.000000
    34  H    0.000005   0.000000   0.000000   0.000000   0.000000
    35  H    0.000000   0.000000   0.000004  -0.000015   0.000000
    36  H    0.000000   0.000000   0.000000   0.000000   0.000000
    37  H    0.000000   0.000000   0.000000   0.000000   0.000000
    38  H    0.000000   0.000000   0.000000   0.000000   0.000000
    39  H    0.000000   0.000000   0.000000   0.000000   0.000000
    40  H    0.000056  -0.000096   0.000000   0.000000   0.000000
    41  H    0.000000   0.000000   0.000000   0.000000   0.000000
    42  H   -0.046137  -0.034942   0.000000   0.000000   0.000000
    43  H    0.596130  -0.034732   0.000000   0.000000   0.000000
    44  H   -0.034732   0.552480   0.000000   0.000000   0.000000
    45  H    0.000000   0.000000   0.611558  -0.047415  -0.035118
    46  H    0.000000   0.000000  -0.047415   0.610497  -0.035009
    47  H    0.000000   0.000000  -0.035118  -0.035009   0.547822
 Mulliken charges:
               1
     1  O   -0.581197
     2  O   -0.532955
     3  O   -0.611825
     4  O   -0.591494
     5  O   -0.414039
     6  O   -0.429170
     7  C    0.064257
     8  C    0.062060
     9  C   -0.415090
    10  C   -0.174826
    11  C   -0.178330
    12  C    0.253914
    13  C    0.280431
    14  C   -0.135241
    15  C   -0.126138
    16  C   -0.135954
    17  C   -0.122109
    18  C    0.261701
    19  C    0.267778
    20  C    0.322239
    21  C    0.327467
    22  C   -0.129108
    23  C   -0.165598
    24  C   -0.130496
    25  C   -0.154472
    26  C   -0.169641
    27  C   -0.176435
    28  H    0.197072
    29  H    0.164302
    30  H    0.147255
    31  H    0.155193
    32  H    0.145834
    33  H    0.134404
    34  H    0.152729
    35  H    0.163338
    36  H    0.144894
    37  H    0.126179
    38  H    0.142301
    39  H    0.129127
    40  H    0.390569
    41  H    0.374984
    42  H    0.157977
    43  H    0.160623
    44  H    0.169617
    45  H    0.152292
    46  H    0.152952
    47  H    0.172629
 Sum of Mulliken charges =   0.00000
 Mulliken charges with hydrogens summed into heavy atoms:
               1
     1  O   -0.581197
     2  O   -0.532955
     3  O   -0.221256
     4  O   -0.216510
     5  O   -0.414039
     6  O   -0.429170
     7  C    0.064257
     8  C    0.062060
     9  C   -0.053715
    10  C   -0.027572
    11  C   -0.023137
    12  C    0.253914
    13  C    0.280431
    14  C    0.010593
    15  C    0.008266
    16  C    0.016775
    17  C    0.041228
    18  C    0.261701
    19  C    0.267778
    20  C    0.322239
    21  C    0.327467
    22  C    0.015785
    23  C   -0.039419
    24  C    0.011805
    25  C   -0.025345
    26  C    0.318576
    27  C    0.301439
 APT charges:
               1
     1  O   -0.902146
     2  O   -0.869339
     3  O   -0.833278
     4  O   -0.836095
     5  O   -0.760553
     6  O   -0.777948
     7  C   -0.186962
     8  C   -0.228953
     9  C   -0.349922
    10  C   -0.015828
    11  C   -0.019199
    12  C    0.427683
    13  C    0.478237
    14  C   -0.032313
    15  C   -0.027122
    16  C    0.425199
    17  C    0.477984
    18  C    0.542565
    19  C    0.583487
    20  C    1.191023
    21  C    1.205155
    22  C   -0.106583
    23  C   -0.133878
    24  C   -0.617706
    25  C   -0.702583
    26  C    0.496762
    27  C    0.486391
    28  H    0.005043
    29  H    0.010255
    30  H    0.069391
    31  H    0.078444
    32  H    0.048816
    33  H    0.044842
    34  H    0.032565
    35  H    0.057883
    36  H    0.050632
    37  H    0.016657
    38  H    0.049121
    39  H    0.042091
    40  H    0.354058
    41  H    0.314602
    42  H   -0.019934
    43  H   -0.016125
    44  H   -0.002451
    45  H   -0.025121
    46  H   -0.023791
    47  H   -0.001058
 Sum of APT charges =   0.00000
 APT charges with hydrogens summed into heavy atoms:
               1
     1  O   -0.902146
     2  O   -0.869339
     3  O   -0.479220
     4  O   -0.521492
     5  O   -0.760553
     6  O   -0.777948
     7  C   -0.186962
     8  C   -0.228953
     9  C   -0.334624
    10  C    0.053563
    11  C    0.059245
    12  C    0.427683
    13  C    0.478237
    14  C    0.016503
    15  C    0.017720
    16  C    0.457764
    17  C    0.535866
    18  C    0.542565
    19  C    0.583487
    20  C    1.191023
    21  C    1.205155
    22  C   -0.055951
    23  C   -0.117221
    24  C   -0.568585
    25  C   -0.660492
    26  C    0.458253
    27  C    0.436420
 Electronic spatial extent (au):  <R**2>=          21616.5235
 Charge=              0.0000 electrons
 Dipole moment (field-independent basis, Debye):
    X=              0.0570    Y=             -1.9347    Z=              4.7364  Tot=              5.1166
 Quadrupole moment (field-independent basis, Debye-Ang):
   XX=           -128.4626   YY=           -179.5993   ZZ=           -140.2728
   XY=             -2.7788   XZ=             15.2554   YZ=              3.3528
 Traceless Quadrupole moment (field-independent basis, Debye-Ang):
   XX=             20.9823   YY=            -30.1544   ZZ=              9.1721
   XY=             -2.7788   XZ=             15.2554   YZ=              3.3528
 Octapole moment (field-independent basis, Debye-Ang**2):
  XXX=            418.4602  YYY=            -64.5934  ZZZ=             33.7225  XYY=            -51.8126
  XXY=             67.9686  XXZ=             86.3822  XZZ=           -106.6997  YZZ=            -33.0670
  YYZ=             32.8866  XYZ=             20.2281
 Hexadecapole moment (field-independent basis, Debye-Ang**3):
 XXXX=         -22540.0856 YYYY=          -3364.6206 ZZZZ=          -1128.7794 XXXY=           -258.7025
 XXXZ=           1128.3981 YYYX=           -150.0756 YYYZ=            -23.0430 ZZZX=            -55.3241
 ZZZY=            -52.0765 XXYY=          -4771.2910 XXZZ=          -3334.2913 YYZZ=           -682.9268
 XXYZ=           -197.5737 YYXZ=              7.7088 ZZXY=            204.7935
 N-N= 2.133121125655D+03 E-N=-7.214239806842D+03  KE= 1.257122191752D+03
  Exact polarizability: 381.631  19.224 228.406  17.390   6.517 191.114
 Approx polarizability: 495.250  38.237 368.293  26.539  10.310 308.078
 Calling FoFJK, ICntrl=    100127 FMM=F ISym2X=0 I1Cent= 0 IOpClX= 0 NMat=1 NMatS=1 NMatT=0.
 Full mass-weighted force constant matrix:
 Low frequencies ---  -91.5872  -75.5410  -73.4465  -69.1655  -49.9868  -48.0990
 Low frequencies ---  -42.1810  -36.7194  -22.2488
 ******    7 imaginary frequencies (negative Signs) ****** 
 Diagonal vibrational polarizability:
      157.2403832     233.7278416     324.3333828
 Diagonal vibrational hyperpolarizability:
    -1214.8274683    2057.2300511    -614.2341090
 Harmonic frequencies (cm**-1), IR intensities (KM/Mole), Raman scattering
 activities (A**4/AMU), depolarization ratios for plane and unpolarized
 incident light, reduced masses (AMU), force constants (mDyne/A),
 and normal coordinates:
                      1                      2                      3
                      A                      A                      A
 Frequencies --    -90.9725               -72.8519               -71.7110
 Red. masses --      6.4627                 6.8954                 5.9690
 Frc consts  --      0.0315                 0.0216                 0.0181
 IR Inten    --      7.1301                 2.4516                 0.2456
 Raman Activ --      7.1672                 3.4693                 4.4503
 Depolar (P) --      0.7446                 0.6593                 0.7167
 Depolar (U) --      0.8536                 0.7947                 0.8350
  Atom  AN      X      Y      Z        X      Y      Z        X      Y      Z
     1   8    -0.01  -0.03   0.06    -0.01   0.05   0.04    -0.12  -0.09   0.15
     2   8    -0.01   0.03   0.00    -0.08   0.13   0.07     0.02  -0.07   0.01
     3   8    -0.02  -0.05   0.10     0.05   0.02   0.04    -0.12  -0.08   0.14
     4   8    -0.02   0.02   0.00    -0.06   0.19   0.09     0.05  -0.10   0.01
     5   8    -0.10  -0.01  -0.20     0.08   0.00   0.34     0.02   0.06   0.16
     6   8    -0.21   0.41   0.00    -0.07   0.09  -0.10     0.05  -0.08   0.01
     7   6     0.06   0.03  -0.07    -0.03  -0.02  -0.03     0.07   0.09  -0.18
     8   6     0.02  -0.04   0.00     0.07  -0.15  -0.06    -0.02   0.05   0.02
     9   6     0.05  -0.13   0.12    -0.03  -0.01  -0.08     0.03  -0.04   0.00
    10   6     0.05   0.02  -0.05    -0.04   0.00   0.00     0.03   0.05  -0.11
[...]
 -0.00095296,0.00219494,0.28727730,-0.03357082,0.00093958,-0.01716358,0
 .00000775,0.00000095,0.00000799,0.00015522,0.00000079,0.00012434,0.000
 01039,0.00000540,-0.00000535,0.00001862,-0.00003492,-0.00000466,0.0000
 1863,0.00000162,-0.00000332,-0.00019145,0.00052822,0.00008684,0.000005
 09,0.00000227,-0.00000134,0.00001981,0.00000183,-0.00000048,0.00103456
 ,-0.00143834,-0.00050916,-0.00000091,-0.00000121,-0.00000320,-0.001338
 31,-0.00409894,-0.00298744,-0.00000627,0.00000040,-0.00000988,0.000116
 31,0.00010767,0.00014364,-0.00000014,-0.00000012,0.00000175,-0.0000603
 0,-0.00002800,-0.00006351,-0.00001170,-0.00000703,-0.00000351,-0.00144
 454,0.00089723,-0.00047743,-0.00000809,-0.00000499,0.00000587,-0.00005
 239,0.00005772,0.00001838,-0.00003359,-0.00001920,0.00000151,0.0001917
 7,-0.00046661,-0.00013093,0.00000354,0.00000003,0.00000211,0.00003298,
 -0.00000787,0.00000761,0.00002150,0.00001239,0.00000683,0.07931124,-0.
 07459321,0.03156567,-0.00000092,0.00000143,-0.00000428,0.00000362,-0.0
 0000257,0.00000055,-0.00000038,0.00000077,0.00000148,0.00034901,0.0008
 3419,0.00087354,-0.00000110,-0.00000016,0.,0.00001625,0.00004636,0.000
 04224,-0.00000051,0.00000025,0.00000123,-0.00002163,0.00004222,0.00000
 304,-0.00000162,0.00000067,-0.00000027,-0.00011526,0.00002104,-0.00003
 026,-0.00000006,0.00000059,-0.00000063,0.00000967,0.00000412,-0.000003
 04,-0.00000152,0.00000074,-0.00000003,-0.00008172,-0.00002818,-0.00011
 983,-0.00000213,-0.00000049,0.00000142,0.00359277,0.00027083,0.0028218
 8,0.02563281,-0.00722684,0.00875066,-0.07360599,0.08418005,-0.02277871
 ,0.00000511,-0.01205023,-0.00000945,-0.00000135,-0.00001000,0.00025069
 ,-0.00017720,-0.00004321,-0.00001199,-0.00000665,0.00000616,0.00000404
 ,0.00006755,0.00001161,-0.00002195,0.00000085,0.00000713,-0.00017365,0
 .00014871,0.00015284,-0.00000561,-0.00000252,0.00000166,-0.00001970,-0
 .00000015,0.00000027,0.00029653,-0.00091337,0.00035615,0.00000099,0.00
 000142,0.00000375,0.00026640,-0.00291984,-0.00083138,0.00000789,-0.000
 00022,0.00001199,0.00001024,0.00008891,0.00001283,-0.00000010,0.000000
 02,-0.00000216,0.00001448,-0.00009501,0.00000788,0.00001348,0.00000823
 ,0.00000364,-0.00123790,0.00063890,-0.00000519,0.00000942,0.00000594,-
 0.00000700,0.00004970,-0.00010754,-0.00003279,0.00003610,0.00001844,-0
 .00000641,0.00011444,-0.00032814,-0.00011008,-0.00000390,-0.00000016,-
 0.00000236,-0.00009941,0.00007516,0.00001124,-0.00002387,-0.00001355,-
 0.00000760,-0.07023350,0.02593003,-0.07822967,0.00000110,-0.00000162,0
 .00000541,-0.00000418,0.00000271,-0.00000039,-0.00000238,-0.00000056,-
 0.00000150,0.00038180,0.00041400,-0.00010566,0.00000137,0.00000018,0.0
 0000003,0.00000672,0.00002912,-0.00001632,0.00000046,-0.00000025,-0.00
 000145,0.00000261,0.00001293,-0.00000439,0.00000211,-0.00000097,0.0000
 0054,-0.00007237,0.00002632,-0.00006093,0.,-0.00000053,0.00000076,0.00
 000882,-0.00000349,0.00000673,0.00000143,-0.00000079,0.00000027,-0.000
 16780,0.00000772,0.00004219,0.00000234,0.00000088,-0.00000152,0.024709
 89,-0.00813377,0.00922620,-0.01822916,0.00817143,-0.00515582,0.0869022
 9,-0.02294765,0.08681822,0.00000809,-0.00000142,0.00000159,0.00187401,
 -0.00301674,0.00553114,0.00001311,-0.00001976,-0.00000519,-0.00031958,
 -0.00033650,0.00011316,0.00002723,0.00000077,-0.00001435,0.00006231,0.
 00001850,-0.00010124,0.00000492,-0.00000726,0.00000033,-0.00040689,0.0
 0049268,-0.00079133,0.00004433,0.00001515,0.00000092,-0.00000527,-0.00
 000132,-0.00000391,-0.00004429,-0.00116407,0.00090997,-0.00000777,-0.0
 0000699,-0.00000707,0.00044885,-0.00079904,-0.00167486,0.00000339,0.00
 000332,-0.00000141,-0.00003392,-0.00000619,0.00059109,-0.00002199,0.00
 001382,0.00000268,-0.00001006,-0.00010092,0.00001754,-0.00000859,0.000
 01682,0.00000485,0.00031667,0.00064520,-0.00022446,-0.00006987,0.00002
 088,0.00002890,-0.00014823,-0.00007336,0.00009507,0.00000746,0.0000010
 7,0.00000371,0.00031089,0.00020565,-0.00009818,0.00003583,-0.00001909,
 -0.00000931,0.00011980,0.00008198,0.00001088,-0.00000239,-0.00000078,0
 .00000054,-0.19952740,0.09546354,0.08588594,0.00000274,-0.00000269,0.0
 0000165,-0.00000285,-0.00000148,-0.00000356,-0.00000206,0.00000015,0.0
 0000038,-0.00047959,-0.00129392,-0.00211022,-0.00000116,0.00000257,0.0
 0000361,0.00003850,-0.00006683,-0.00003416,0.00000020,0.00000035,-0.00
 000086,0.00000312,0.00000921,-0.00001016,-0.00000036,-0.00000178,0.000
 00041,0.00002946,-0.00002201,0.00002956,-0.00000390,0.00000467,0.00000
 021,-0.00000886,-0.00001872,-0.00001088,-0.00000318,0.00000246,0.00000
 123,0.00002133,0.00007010,-0.00001808,0.00000033,0.00000055,-0.0000008
 4,-0.00000051,0.00000047,0.00000036,0.00000081,-0.00000032,0.00000051,
 0.21803723,0.00002389,0.00000192,0.00001310,-0.01047363,0.00818614,0.0
 1085026,0.00001720,-0.00002495,-0.00000349,-0.00015091,-0.00002742,0.0
 0014473,0.00003055,0.00001230,-0.00001146,0.00007457,0.00004157,-0.000
 04092,0.00000659,-0.00000713,0.00000111,-0.00024983,-0.00015041,0.0003
 4758,0.00005457,0.00002843,0.00001082,-0.00000436,-0.00000207,-0.00000
 236,0.00101898,0.00041423,-0.00093578,-0.00001993,-0.00000717,-0.00001
 438,-0.00109175,0.00040038,-0.00063972,-0.00000110,0.00000324,-0.00000
 236,0.00014553,-0.00006679,0.00009958,-0.00002290,0.00001432,0.0000036
 0,-0.00007648,-0.00003774,-0.00006858,-0.00001095,0.00002331,0.0000059
 8,0.00011765,-0.00033120,-0.00023520,-0.00007218,0.00001053,0.00002979
 ,-0.00015858,-0.00010997,0.00004402,0.00000731,-0.00000051,0.00000385,
 0.00003066,-0.00001248,0.00006001,0.00003139,-0.00002190,-0.00000614,0
 .00012922,0.00008724,0.00003412,-0.00000583,-0.00000738,-0.00000625,0.
 09557737,-0.11431955,-0.05552707,0.00000705,-0.00000128,0.00000097,0.0
 0000032,-0.00000461,-0.00000189,-0.00000161,0.00000137,0.00000032,-0.0
 0060944,-0.00103705,-0.00032154,-0.00000019,0.00000117,0.00000189,0.00
 000455,-0.00000196,0.00007202,0.00000176,0.00000112,-0.00000167,-0.000
 04995,-0.00001884,0.00000863,-0.00000165,0.00000021,-0.00000024,-0.000
 01724,0.00001464,0.00002877,-0.00000401,0.00000709,-0.00000386,0.00000
 814,0.00000100,0.00001584,-0.00000431,0.00000366,-0.00000034,0.0000391
 4,0.00001464,0.00000853,-0.00000062,0.00000185,-0.00000022,-0.00000113
 ,0.00000143,0.00000078,0.00000222,-0.00000068,0.00000083,-0.10117848,0
 .11366730,-0.00000469,0.00000094,-0.00000106,0.02406987,-0.00874205,-0
 .03686276,-0.00000772,0.00001244,0.00000273,0.00002649,-0.00008572,0.0
 0020333,-0.00001999,-0.00000030,0.00000993,-0.00004570,-0.00001227,0.0
 0011782,-0.00000320,0.00000469,-0.00000017,-0.00073679,0.00010397,-0.0
 0046187,-0.00002829,-0.00001779,-0.00000100,0.00000391,0.00000120,0.00
 000268,-0.00095114,-0.00019483,0.00083262,0.00000474,0.00000462,0.0000
 0471,0.00813729,0.00041420,0.00579944,-0.00000312,-0.00000178,-0.00000
 013,-0.00065331,-0.00049759,0.00062503,0.00001581,-0.00000915,-0.00000
 189,0.00013697,0.00012488,-0.00013403,0.00000482,-0.00001019,-0.000002
 89,-0.00097059,0.00055185,-0.00181980,0.00005274,-0.00001463,-0.000020
 80,0.00012694,0.00008784,-0.00012425,-0.00000445,-0.00000039,-0.000002
 87,0.00094601,0.00066052,0.00032169,-0.00002674,0.00001288,0.00000626,
 -0.00019771,-0.00012294,0.00000589,0.00000145,0.00000038,-0.00000018,0
 .08057585,-0.05226115,-0.09726422,-0.00000507,0.00000089,-0.00000185,0
 .00000202,0.00000122,0.00000247,0.00000143,-0.00000015,-0.00000010,-0.
 00084778,-0.00181666,-0.00097117,0.00000034,-0.00000250,-0.00000187,0.
 00001500,-0.00006654,0.00001590,0.,-0.00000025,0.00000089,-0.00001603,
 -0.00003685,0.00002107,-0.00000043,0.00000130,0.00000031,0.00001309,-0
 .00007430,-0.00005322,0.00000280,-0.00000401,-0.00000015,0.00002347,0.
 00000619,0.00001705,0.00000183,-0.00000151,-0.00000036,-0.00010896,-0.
 00009092,-0.00003774,-0.00000016,-0.00000036,0.00000049,0.00000032,-0.
 00000023,-0.00000024,-0.00000052,0.00000022,-0.00000027,-0.09749115,0.
 05632244,0.11861232,0.00002155,0.00000148,0.00001050,0.00146825,-0.004
 16410,0.00251141,0.00001769,-0.00002495,-0.00000508,-0.00034849,-0.000
 17746,0.00024044,0.00003697,0.00001014,-0.00001543,0.00008929,0.000030
 72,-0.00007795,0.00000674,-0.00000796,0.00000104,-0.00025639,-0.000437
 42,-0.00054715,0.00006193,0.00002982,0.00000808,-0.00000537,-0.0000022
 6,-0.00000374,-0.00003433,0.00060466,0.00035431,-0.00001841,-0.0000081
 7,-0.00001357,0.00053208,0.00104571,-0.00004448,0.00000207,0.00000360,
 -0.00000205,-0.00004590,-0.00015160,0.00058079,-0.00002684,0.00001578,
 0.00000367,-0.00008902,-0.00000409,-0.00001388,-0.00001085,0.00002283,
 0.00000647,0.00013839,0.00020040,-0.00070295,-0.00008901,0.00001718,0.
 00003627,-0.00019093,-0.00011507,0.00007545,0.00000813,0.00000004,0.00
 000378,0.00047411,0.00013125,0.00000829,0.00004059,-0.00002403,-0.0000
 0946,0.00015704,0.00008386,0.00001517,-0.00000571,-0.00000639,-0.00000
 452,-0.05305834,-0.01486281,0.00096404,0.00000549,-0.00000310,0.000000
 67,-0.00000134,-0.00000442,-0.00000321,-0.00000221,0.00000108,0.000000
 50,-0.00238798,0.00111591,-0.00093105,-0.00000056,0.00000204,0.0000032
 7,-0.00001124,0.00003713,0.00005867,0.00000125,0.00000104,-0.00000155,
 -0.00003508,0.00001564,0.00000997,-0.00000119,-0.00000099,0.00000035,0
 .00000036,0.00000164,0.00003526,-0.00000458,0.00000745,-0.00000214,-0.
 00000690,-0.00000552,0.00000245,-0.00000469,0.00000317,0.00000052,0.00
 003889,-0.00000106,-0.00002345,-0.00000032,0.00000160,-0.00000053,-0.0
 0000107,0.00000141,0.00000064,0.00000200,-0.00000073,0.00000086,0.0022
 0307,0.02568140,-0.00136804,0.05307057,0.00000613,0.00000277,0.0000022
 4,-0.00145657,-0.00620039,0.01263187,0.00000123,0.00000302,-0.00000219
 ,-0.00025611,0.00002750,-0.00002593,0.00000659,0.00001924,-0.00000571,
 0.00000742,0.00002413,-0.00009339,-0.00000043,0.00000129,0.00000059,0.
 00028951,0.00014516,-0.00067375,0.00001009,0.00000222,0.00000051,0.000
 00195,0.00000041,-0.00000094,-0.00068261,0.00003471,0.00107484,-0.0000
 0441,0.00000050,-0.00000080,-0.00299066,0.00005312,-0.00297559,0.00000
 110,0.00000050,-0.00000242,0.00027501,-0.00001095,0.00004314,0.0000029
 2,-0.00000107,-0.00000070,-0.00008204,-0.00000547,0.00011902,-0.000000
 15,-0.00000101,0.00000102,0.00081368,-0.00012266,0.00058989,-0.0000079
 8,-0.00001995,0.00000661,-0.00006156,-0.00005575,0.00009531,-0.0000002
 6,0.00000065,-0.00000286,-0.00024797,0.00002357,-0.00019378,-0.0000066
 0,0.00000168,-0.00000428,0.00010591,0.00009538,-0.00000303,-0.00000242
 ,-0.00000363,-0.00000074,-0.01340178,-0.30714366,0.00838287,0.00000398
 ,0.00000237,0.00000226,-0.00000188,-0.00000089,-0.00000425,-0.00000030
 ,-0.00000014,0.00000102,0.00027134,0.00046409,-0.00091651,-0.00000078,
 -0.00000231,0.00000234,-0.00000358,0.00003669,-0.00005501,0.00000089,-
 0.00000012,0.00000168,0.00004917,-0.00000839,-0.00001387,-0.00000128,-
 0.00000022,0.00000208,0.00002613,0.00000411,0.00002676,-0.00000045,0.0
 0000046,0.00000297,-0.00000905,-0.00002229,-0.00001645,-0.00000140,-0.
 00000113,0.00000167,0.00008507,-0.00001557,-0.00002687,0.00000002,0.00
 000016,-0.00000017,-0.00000017,0.00000094,-0.00000035,0.00000031,-0.00
 000033,0.00000035,-0.00438109,-0.01216020,-0.00003606,0.02134320,0.334
 70306,-0.00001397,-0.00000052,-0.00000667,0.00136700,0.04049939,-0.021
 98031,-0.00001250,0.00001830,0.00000354,-0.00005805,0.00002768,0.00018
 479,-0.00002488,-0.00000709,0.00001067,-0.00005919,-0.00002821,0.00010
 087,-0.00000471,0.00000582,-0.00000059,-0.00034405,-0.00030129,-0.0008
 3493,-0.00004005,-0.00002396,-0.00000609,0.00000407,0.00000161,0.00000
 267,-0.00106437,-0.00114334,0.00111719,0.00001209,0.00000587,0.0000092
 3,0.00618822,0.00345698,0.00605240,-0.00000140,-0.00000258,0.00000143,
 -0.00059627,-0.00051473,0.00058697,0.00001901,-0.00001185,-0.00000274,
 0.00013496,0.00014489,-0.00006510,0.00000790,-0.00001645,-0.00000451,-
 0.00029920,-0.00037866,-0.00184923,0.00006163,-0.00001115,-0.00002558,
 0.00015356,0.00011232,-0.00010820,-0.00000600,-0.00000026,-0.00000307,
 0.00107483,0.00019762,0.00011816,-0.00002810,0.00001732,0.00000676,-0.
 00020066,-0.00015065,-0.00001882,0.00000363,0.00000380,0.00000279,0.00
 046988,0.00240811,-0.05108763,-0.00000777,0.00000003,-0.00000152,0.000
 00072,0.00000337,0.00000232,0.00000155,-0.00000069,-0.00000026,-0.0016
 1513,0.00081434,-0.00050238,0.00000043,-0.00000169,-0.00000241,-0.0000
 4563,0.00007423,0.00001755,-0.00000096,-0.00000063,0.00000114,0.000014
 39,0.00000497,0.00001626,0.00000071,0.00000072,-0.00000012,-0.00004870
 ,0.00008131,-0.00000927,0.00000355,-0.00000548,0.00000134,0.00001014,0
 .00000203,0.00000476,0.00000317,-0.00000246,-0.00000029,-0.00013230,-0
 .00002193,-0.00002781,0.00000019,-0.00000104,0.00000039,0.00000070,-0.
 00000084,-0.00000047,-0.00000133,0.00000045,-0.00000055,-0.00294933,-0
 .01401520,0.00302644,-0.00117840,-0.01719766,0.06260788,-0.00002676,-0
 .00000142,-0.00001279,0.00538213,0.00155850,0.00348951,-0.00002283,0.0
 0003216,0.00000662,0.00023663,0.00017908,-0.00017291,-0.00004313,-0.00
 001126,0.00001899,-0.00009878,-0.00004485,0.00010992,-0.00000848,0.000
 01010,-0.00000128,0.00021741,0.00011121,-0.00018377,-0.00007048,-0.000
 03582,-0.00000871,0.00000638,0.00000243,0.00000439,-0.00052200,-0.0006
 8692,0.00045841,0.00002277,0.00001023,0.00001677,0.00176634,-0.0001694
 0,0.00271881,-0.00000170,-0.00000484,0.00000328,-0.00011481,-0.0000007
 9,-0.00016646,0.00003203,-0.00001970,-0.00000449,0.00016333,0.00004769
 ,0.00001218,0.00001446,-0.00002966,-0.00000827,0.00008888,-0.00014028,
 0.00016716,0.00010413,-0.00002024,-0.00004273,0.00022688,0.00014863,-0
 .00011018,-0.00001047,0.,-0.00000443,-0.00010192,-0.00004711,0.0000034
 2,-0.00004791,0.00002962,0.00001143,-0.00020745,-0.00012201,-0.0000234
 6,0.00000695,0.00000758,0.00000530,-0.24655732,-0.06354578,-0.10051412
 ,-0.00000717,0.00000313,-0.00000171,0.00000153,0.00000478,0.00000401,0
 .00000265,-0.00000130,-0.00000069,0.00006834,0.00050484,-0.00074730,0.
 00000101,-0.00000177,-0.00000428,-0.00001659,0.00002155,-0.00005205,-0
 .00000160,-0.00000127,0.00000165,0.00003579,0.00001622,-0.00000747,0.0
 0000208,0.00000102,-0.00000068,0.00000930,0.00002710,-0.00000998,0.000
 00570,-0.00000847,0.00000273,0.00000387,0.00000172,-0.00000429,0.00000
 594,-0.00000434,-0.00000085,-0.00004137,-0.00003029,0.00001473,0.00000
 033,-0.00000200,0.00000072,0.00000133,-0.00000171,-0.00000086,-0.00000
 247,0.00000083,-0.00000110,-0.02250497,-0.00880298,-0.01067160,-0.0017
 3971,0.00029993,-0.00079938,0.26374172,-0.00000966,-0.00000164,-0.0000
 0500,0.01100957,0.00257509,0.00995606,-0.00000573,0.00000662,0.0000018
 3,0.00003695,-0.00000564,-0.00008112,-0.00001381,-0.00000747,0.0000057
 0,-0.00003353,-0.00001244,0.00002719,-0.00000211,0.00000198,-0.0000005
 7,0.00011907,0.00026994,-0.00010196,-0.00002323,-0.00001049,-0.0000033
 4,0.00000109,0.00000075,0.00000118,-0.00089186,0.00008684,0.00050702,0
 .00000790,0.00000234,0.00000506,0.00001446,-0.00015048,0.00252903,-0.0
 0000082,-0.00000109,0.00000103,-0.00001751,-0.00002631,-0.00012616,0.0
 0000790,-0.00000420,-0.00000102,0.00002721,0.00006292,0.00003436,0.000
 00311,-0.00000669,-0.00000224,0.00045540,0.00043156,0.00026792,0.00003
 112,-0.00000091,-0.00001305,0.00007602,0.00004108,-0.00002455,-0.00000
 216,0.00000020,-0.00000031,-0.00016462,-0.00010048,0.00009239,-0.00001
 174,0.00000718,0.00000345,-0.00004849,-0.00003167,-0.00000758,0.000002
 70,0.00000363,0.00000237,-0.06665663,-0.07551853,-0.03685174,-0.000001
 36,0.00000140,0.00000003,0.00000021,0.00000174,0.00000114,0.00000071,-
 0.00000047,-0.00000037,0.00026400,-0.00022753,-0.00068566,0.00000020,-
 0.00000002,-0.00000125,0.00001182,-0.00001451,-0.00004065,-0.00000063,
 -0.00000046,0.00000027,0.00002187,-0.00000479,-0.00000581,0.00000071,0
 .00000027,-0.00000055,0.00004921,-0.00001721,0.00001421,0.00000144,-0.
 00000263,0.00000061,-0.00000003,-0.00000120,-0.00000278,0.00000185,-0.
 00000059,-0.00000038,-0.00001911,0.00000435,0.00000548,0.00000020,-0.0
 0000068,0.00000012,0.00000045,-0.00000078,-0.00000016,-0.00000082,0.00
 000036,-0.00000038,0.01545084,0.00541223,0.00578845,-0.03040805,-0.009
 87163,-0.01404281,0.07071588,0.07711007,-0.00001565,-0.00000114,-0.000
 00796,-0.03134821,-0.00650523,-0.03048525,-0.00001216,0.00001729,0.000
 00315,0.00035081,0.00016938,-0.00005188,-0.00002437,-0.00000758,0.0000
 1021,-0.00005440,-0.00002328,0.00009488,-0.00000451,0.00000524,-0.0000
 0071,-0.00036719,-0.00017734,0.00021929,-0.00003838,-0.00002161,-0.000
 00426,0.00000347,0.00000153,0.00000240,0.00123508,0.00088058,-0.000388
 88,0.00001334,0.00000546,0.00000968,0.00208007,0.00224373,-0.00408625,
 -0.00000144,-0.00000236,0.00000142,-0.00004629,-0.00008252,0.00010394,
 0.00001765,-0.00001052,-0.00000244,0.00010007,0.00009788,-0.00009945,0
 .00000756,-0.00001598,-0.00000445,-0.00201081,-0.00077042,-0.00037025,
 0.00005897,-0.00000947,-0.00002397,0.00014591,0.00009619,-0.00009943,-
 0.00000529,0.00000016,-0.00000238,0.00039664,0.00028014,-0.00033363,-0
 .00002645,0.00001588,0.00000653,-0.00017335,-0.00011316,0.00000345,0.0
 0000413,0.00000467,0.00000355,-0.08908841,-0.03145399,-0.09307539,-0.0
 0000558,0.00000095,-0.00000106,0.00000120,0.00000302,0.00000274,0.0000
 0148,-0.00000080,-0.00000033,0.00010428,-0.00029975,0.00069520,0.00000
 025,-0.00000109,-0.00000225,-0.00001668,-0.00001627,0.00002621,-0.0000
 0089,-0.00000070,0.00000097,-0.00001799,-0.00001538,0.00001563,0.00000
 090,0.00000050,-0.00000019,-0.00009973,-0.00002746,-0.00010772,0.00000
 313,-0.00000498,0.00000113,0.00001108,0.00000812,0.00000818,0.00000323
 ,-0.00000238,-0.00000014,-0.00002694,-0.00001356,0.00002034,0.00000031
 ,-0.00000119,0.00000032,0.00000076,-0.00000099,-0.00000048,-0.00000148
 ,0.00000050,-0.00000058,0.01232433,0.00372911,0.00813583,0.00001575,-0
 .00073574,0.00266298,0.10650580,0.03275456,0.11712131||-0.01974248,0.0
 2535916,0.00194775,0.02120372,0.01180946,-0.00751633,-0.00791503,0.013
 15817,0.00254883,0.01769137,0.00796585,0.00214144,-0.01038699,-0.02498
 836,-0.00268481,-0.00748621,-0.00315314,0.03051306,0.02553672,-0.02859
 821,-0.00244371,-0.03490961,-0.01730614,0.00478567,-0.00029157,-0.0084
 9326,-0.00141679,-0.00128984,0.00323548,0.00303925,0.00077890,0.003947
 19,-0.00397441,0.01960662,-0.03265487,-0.00612819,-0.01171977,-0.01093
 021,0.01832436,-0.00109359,0.02469053,0.01150115,0.00989173,0.01062438
 ,-0.02246062,-0.01339584,0.00991471,0.00412586,0.01832869,0.00986051,-
 0.00139960,0.00820954,-0.00233542,0.00237006,-0.00863587,-0.00171462,-
 0.01101174,0.00366028,0.03116455,0.00952829,0.01246720,0.01628915,-0.0
 3255283,0.00517495,-0.00047288,0.00205313,-0.00939336,-0.00605421,0.00
 462694,0.01299891,-0.01614334,-0.00737627,-0.01867161,-0.01518827,0.00
 685523,-0.02316512,-0.00342685,-0.01374896,0.01501174,0.00178399,0.019
 51164,-0.00094845,-0.00216257,-0.00201942,0.00321557,0.00062697,-0.001
 40064,-0.00102776,0.00420294,0.00187425,0.00327255,0.00270124,-0.00336
 351,-0.00175245,-0.00430784,-0.00238203,-0.00116636,-0.00144593,0.0049
 4182,0.00323271,-0.00294112,-0.00094931,-0.00388698,-0.00441675,0.0004
 4543,-0.00509552,0.00085243,-0.00189141,0.00256865,0.00136879,0.000468
 23,-0.00110891,0.00196398,-0.00003012,0.00270267,0.00128348,-0.0007422
 9,-0.00780977,0.00455835,-0.00170847,0.00422223,0.00300393,-0.00363793
 ,0.00287542,-0.00343686,0.00281622,0.00493672,-0.00145431,-0.00114249,
 0.00203647,0.00383507,0.00299907,-0.00349314,-0.00392232,-0.00045970,-
 0.00521879,-0.00014437,0.00056000,-0.00001835,0.00149154,-0.00553610||
 |@


 IF YOU BELIEVE CERTAIN WORDS, YOU BELIEVE THEIR HIDDEN ARGUMENTS.
 WHEN YOU BELIEVE SOMETHING IS RIGHT OR WRONG, TRUE OR FALSE, 
 YOU BELIEVE THE ASSUMPTIONS IN THE WORDS WHICH EXPRESS THE ARGUMENTS.
 SUCH ASSUMPTIONS ARE OFTEN FULL OF HOLES, BUT REMAIN MOST PRECIOUS 
 TO THE CONVINCED.

                 -- THE OPEN-ENDED PROOF FROM THE PANOPLIA PROPHETICA
                    CHILDREN OF DUNE BY FRANK HERBERT
 Job cpu time:       0 days  0 hours 19 minutes 14.0 seconds.
 File lengths (MBytes):  RWF=    567 Int=      0 D2E=      0 Chk=      6 Scr=      1
 Normal termination of Gaussian 09 at Sat Dec 16 19:52:41 2023.
