 Entering Link 1 = C:\G09W\l1.exe PID=     12596.
  
 Copyright (c) 1988,1990,1992,1993,1995,1998,2003,2009,2013,
            Gaussian, Inc.  All Rights Reserved.
  
 This is part of the Gaussian(R) 09 program.  It is based on
 the Gaussian(R) 03 system (copyright 2003, Gaussian, Inc.),
 the Gaussian(R) 98 system (copyright 1998, Gaussian, Inc.),
 the Gaussian(R) 94 system (copyright 1995, Gaussian, Inc.),
 the Gaussian 92(TM) system (copyright 1992, Gaussian, Inc.),
 the Gaussian 90(TM) system (copyright 1990, Gaussian, Inc.),
 the Gaussian 88(TM) system (copyright 1988, Gaussian, Inc.),
 the Gaussian 86(TM) system (copyright 1986, Carnegie Mellon
 University), and the Gaussian 82(TM) system (copyright 1983,
 Carnegie Mellon University). Gaussian is a federally registered
 trademark of Gaussian, Inc.
  
 This software contains proprietary and confidential information,
 including trade secrets, belonging to Gaussian, Inc.
  
 This software is provided under written license and may be
 used, copied, transmitted, or stored only in accord with that
 written license.
  
 The following legend is applicable only to US Government
 contracts under FAR:
  
                    RESTRICTED RIGHTS LEGEND
  
 Use, reproduction and disclosure by the US Government is
 subject to restrictions as set forth in subparagraphs (a)
 and (c) of the Commercial Computer Software - Restricted
 Rights clause in FAR 52.227-19.
  
 Gaussian, Inc.
 340 Quinnipiac St., Bldg. 40, Wallingford CT 06492
  
  
 ---------------------------------------------------------------
 Warning -- This program may not be used in any manner that
 competes with the business of Gaussian, Inc. or will provide
 assistance to any competitor of Gaussian, Inc.  The licensee
 of this program is prohibited from giving any competitor of
 Gaussian, Inc. access to this program.  By using this program,
 the user acknowledges that Gaussian, Inc. is engaged in the
 business of creating and licensing software in the field of
 computational chemistry and represents and warrants to the
 licensee that it is not a competitor of Gaussian, Inc. and that
 it will not use this program in any manner prohibited above.
 ---------------------------------------------------------------
  

 Cite this work as:
 Gaussian 09, Revision D.01,
 M. J. Frisch, G. W. Trucks, H. B. Schlegel, G. E. Scuseria, 
 M. A. Robb, J. R. Cheeseman, G. Scalmani, V. Barone, B. Mennucci, 
 G. A. Petersson, H. Nakatsuji, M. Caricato, X. Li, H. P. Hratchian, 
 A. F. Izmaylov, J. Bloino, G. Zheng, J. L. Sonnenberg, M. Hada, 
 M. Ehara, K. Toyota, R. Fukuda, J. Hasegawa, M. Ishida, T. Nakajima, 
 Y. Honda, O. Kitao, H. Nakai, T. Vreven, J. A. Montgomery, Jr., 
 J. E. Peralta, F. Ogliaro, M. Bearpark, J. J. Heyd, E. Brothers, 
 K. N. Kudin, V. N. Staroverov, T. Keith, R. Kobayashi, J. Normand, 
 K. Raghavachari, A. Rendell, J. C. Burant, S. S. Iyengar, J. Tomasi, 
 M. Cossi, N. Rega, J. M. Millam, M. Klene, J. E. Knox, J. B. Cross, 
 V. Bakken, C. Adamo, J. Jaramillo, R. Gomperts, R. E. Stratmann, 
 O. Yazyev, A. J. Austin, R. Cammi, C. Pomelli, J. W. Ochterski, 
 R. L. Martin, K. Morokuma, V. G. Zakrzewski, G. A. Voth, 
 P. Salvador, J. J. Dannenberg, S. Dapprich, A. D. Daniels, 
 O. Farkas, J. B. Foresman, J. V. Ortiz, J. Cioslowski, 
 and D. J. Fox, Gaussian, Inc., Wallingford CT, 2013.
 
 ******************************************
 Gaussian 09:  IA32W-G09RevD.01 24-Apr-2013
                16-Dec-2023 
 ******************************************
 %nprocshared=4
 Will use up to    4 processors via shared memory.
 %mem=1GB
 %chk=D:\DFT\Curcumin\UV_Vis.chk
 ------------------------------------
 # td b3lyp/6-31++g geom=connectivity
 ------------------------------------
 1/38=1,57=2/1;
 2/12=2,17=6,18=5,40=1/2;
 3/5=1,6=6,7=1010,11=9,16=1,25=1,30=1,74=-5/1,2,8,3;
 4//1;
 5/5=2,38=5/2;
 8/6=1,10=2/1;
 9/42=1,70=2/14;
 6/7=2,8=2,9=2,10=2/1;
 99/5=1,9=1/99;
 ------
 UV_Vis
 ------
 Symbolic Z-matrix:
 Charge =  0 Multiplicity = 1
 O                     6.89966  -1.80257  -1.08748 
 O                    -6.81595  -2.07423   0.7918 
 O                     7.0598   -2.19382   1.52854 
 O                    -7.22011  -1.78365  -1.81159 
 O                     0.95044   2.68841  -1.79684 
 O                    -0.84674   2.15012   2.21576 
 C                     3.99567   0.27646   0.07613 
 C                    -4.02214   0.28426  -0.02827 
 C                    -0.01383   3.38265   0.31048 
 C                     4.91668  -0.32964  -0.81507 
 C                    -4.87955  -0.55698   0.72212 
 C                     5.92805  -1.14482  -0.3283 
 C                    -5.93693  -1.23838   0.12584 
 C                     4.13425   0.02856   1.45884 
 C                    -4.26096   0.41985  -1.40904 
 C                     2.95057   1.12276  -0.48292 
 C                    -2.93698   0.96395   0.66701 
 C                     6.05182  -1.38122   1.05586 
 C                    -6.15937  -1.08827  -1.26164 
 C                     1.00096   2.6186   -0.54699 
 C                    -0.98123   2.41767   0.99873 
 C                     5.15178  -0.79183   1.94355 
 C                    -5.31843  -0.26121  -2.01133 
 C                     1.98747   1.80981   0.17901 
 C                    -2.01996   1.81876   0.15158 
 C                     6.88779  -1.64294  -2.53093 
 C                    -6.64229  -2.26678   2.22052 
 H                    -0.55456   4.06763  -0.34806 
 H                     0.50466   3.94635   1.09184 
 H                     4.8167   -0.14518  -1.87863 
 H                    -4.69743  -0.66355   1.78478 
 H                     3.44028   0.47694   2.1602 
 H                    -3.62378   1.05222  -2.01604 
 H                     2.94133   1.21715  -1.56886 
 H                    -2.8522    0.76142   1.73461 
 H                     5.26559  -0.98911   3.00251 
 H                    -5.49566  -0.15178  -3.07808 
 H                     1.89946   1.78838   1.2609 
 H                    -2.00942   2.09054  -0.89967 
 H                     7.59268  -2.52067   0.7721 
 H                    -7.29331  -1.61772  -2.77153 
 H                     7.0285   -0.59233  -2.80837 
 H                     5.95047  -2.01753  -2.95715 
 H                     7.7244   -2.23772  -2.89494 
 H                    -6.74226  -1.32005   2.76452 
 H                    -5.67006  -2.72095   2.4458 
 H                    -7.44248  -2.94568   2.51145 
 
                          Input orientation:                          
 ---------------------------------------------------------------------
 Center     Atomic      Atomic             Coordinates (Angstroms)
 Number     Number       Type             X           Y           Z
 ---------------------------------------------------------------------
      1          8           0        6.899661   -1.802572   -1.087484
      2          8           0       -6.815946   -2.074230    0.791804
      3          8           0        7.059798   -2.193819    1.528540
      4          8           0       -7.220106   -1.783652   -1.811591
      5          8           0        0.950440    2.688408   -1.796838
      6          8           0       -0.846735    2.150124    2.215758
      7          6           0        3.995670    0.276463    0.076134
      8          6           0       -4.022140    0.284256   -0.028269
      9          6           0       -0.013831    3.382654    0.310481
     10          6           0        4.916677   -0.329642   -0.815066
     11          6           0       -4.879552   -0.556982    0.722116
     12          6           0        5.928049   -1.144817   -0.328299
     13          6           0       -5.936933   -1.238385    0.125839
     14          6           0        4.134247    0.028559    1.458839
     15          6           0       -4.260959    0.419854   -1.409037
     16          6           0        2.950566    1.122760   -0.482924
     17          6           0       -2.936978    0.963946    0.667007
     18          6           0        6.051820   -1.381219    1.055857
     19          6           0       -6.159366   -1.088267   -1.261638
     20          6           0        1.000960    2.618599   -0.546993
     21          6           0       -0.981230    2.417671    0.998731
     22          6           0        5.151785   -0.791834    1.943552
     23          6           0       -5.318428   -0.261208   -2.011326
     24          6           0        1.987467    1.809815    0.179007
     25          6           0       -2.019961    1.818764    0.151580
     26          6           0        6.887790   -1.642940   -2.530930
     27          6           0       -6.642286   -2.266784    2.220521
     28          1           0       -0.554565    4.067631   -0.348061
     29          1           0        0.504656    3.946354    1.091845
     30          1           0        4.816705   -0.145181   -1.878635
     31          1           0       -4.697432   -0.663550    1.784781
     32          1           0        3.440277    0.476940    2.160200
     33          1           0       -3.623782    1.052220   -2.016042
     34          1           0        2.941328    1.217154   -1.568864
     35          1           0       -2.852197    0.761416    1.734615
     36          1           0        5.265595   -0.989105    3.002509
     37          1           0       -5.495655   -0.151782   -3.078085
     38          1           0        1.899463    1.788376    1.260900
     39          1           0       -2.009416    2.090535   -0.899668
     40          1           0        7.592676   -2.520672    0.772103
     41          1           0       -7.293310   -1.617716   -2.771525
     42          1           0        7.028497   -0.592334   -2.808365
     43          1           0        5.950474   -2.017530   -2.957146
     44          1           0        7.724404   -2.237724   -2.894937
     45          1           0       -6.742263   -1.320049    2.764524
     46          1           0       -5.670057   -2.720949    2.445798
     47          1           0       -7.442484   -2.945684    2.511451
 ---------------------------------------------------------------------
                    Distance matrix (angstroms):
                    1          2          3          4          5
     1  O    0.000000
     2  O   13.846421   0.000000
     3  O    2.649962  13.895804   0.000000
     4  O   14.138334   2.650556  14.671073   0.000000
     5  O    7.487677   9.471037   8.498149   9.314363   0.000000
     6  O    9.302788   7.450120   9.047396   8.503763   4.429505
     7  C    3.756269  11.087334   4.195314  11.558599   4.312648
     8  C   11.169714   3.747043  11.461844   4.205171   5.799511
     9  C    8.754270   8.733729   9.089387   9.117253   2.419213
    10  C    2.485148  11.969966   3.682474  12.264123   5.079718
    11  C   11.982320   2.461000  12.077981   3.660954   7.132074
    12  C    1.397510  12.826841   2.414356  13.246971   6.451884
    13  C   12.906145   1.383767  13.107076   2.386941   8.157958
    14  C    4.181425  11.170201   3.674598  11.954127   5.273600
    15  C   11.384288   4.194296  11.984164   3.711339   5.696964
    16  C    4.951607  10.355212   5.650794  10.660917   2.859742
    17  C   10.367802   4.928741  10.518995   5.660206   4.914907
    18  C    2.343135  12.889119   1.378321  13.584116   7.122065
    19  C   13.079707   2.370621  13.555575   1.382454   8.068398
    20  C    7.391452   9.215153   8.011038   9.410895   1.252811
    21  C    9.179933   7.366404   9.284647   8.029483   3.408790
    22  C    3.641956  12.091222   2.403812  12.967208   6.614673
    23  C   12.349534   3.658845  13.018684   2.444198   6.931446
    24  C    6.227599   9.641649   6.601429  10.082404   2.398190
    25  C    9.706132   6.210215  10.021919   6.623666   3.657306
    26  C    1.452295  14.107407   4.100287  14.126923   7.385905
    27  C   13.947856   1.452056  13.719740   4.101855   9.916783
    28  H    9.516907   8.844583  10.035234   8.989375   2.503248
    29  H    8.871060   9.483073   8.992348  10.046634   3.182081
    30  H    2.776972  12.090121   4.564781  12.147999   4.794155
    31  H   12.001659   2.732055  11.859167   4.533476   7.480780
    32  H    5.264120  10.656974   4.542343  11.598671   5.171849
    33  H   10.943258   5.277178  11.714935   4.584487   4.862989
    34  H    5.001887  10.564581   6.179842  10.598042   2.486000
    35  H   10.470769   4.963979  10.345218   6.175076   5.535748
    36  H    4.478833  12.329977   2.615929  13.405207   7.428216
    37  H   12.662205   4.518297  13.528869   2.690862   7.159638
    38  H    6.588762   9.544534   6.523692  10.264800   3.325728
    39  H    9.724361   6.580963  10.320006   6.556845   3.150097
    40  H    2.110450  14.415550   0.981320  15.054473   8.823450
    41  H   14.293725   3.624030  14.994471   0.976917   9.351584
    42  H    2.107773  14.381441   4.623254  14.333021   6.980633
    43  H    2.107794  13.305613   4.624182  13.222374   6.963656
    44  H    2.033825  15.001352   4.473340  14.990604   8.447437
    45  H   14.183542   2.113254  13.884813   4.624293   9.800583
    46  H   13.089129   2.113529  12.773741   4.626720   9.544217
    47  H   14.830919   2.027108  14.554986   4.482015  10.988427
                    6          7          8          9         10
     6  O    0.000000
     7  C    5.615824   0.000000
     8  C    4.312809   8.018493   0.000000
     9  C    2.417217   5.077346   5.077535   0.000000
    10  C    6.967931   1.417694   8.994353   6.273588   0.000000
    11  C    5.081633   8.937644   1.416303   6.274186   9.918705
    12  C    7.951513   2.432630  10.056765   7.497464   1.387200
    13  C    6.462187  10.047578   2.451248   7.514734  10.932153
    14  C    5.466640   1.411571   8.294789   5.456669   2.431286
    15  C    5.271613   8.390364   1.407814   5.456466   9.227327
    16  C    4.770519   1.456368   7.037643   3.811071   2.466857
    17  C    2.859154   6.991664   1.457040   3.810780   8.096284
    18  C    7.836187   2.817005  10.268097   7.748690   2.427904
    19  C    7.127658  10.333289   2.823606   7.760689  11.110971
    20  C    3.356522   3.852555   5.563252   1.532594   4.908852
    21  C    1.253326   5.495952   3.854001   1.529948   6.754472
    22  C    6.686662   2.442358   9.444943   6.839361   2.806933
    23  C    6.608995   9.560283   2.431133   6.841584  10.305004
    24  C    3.506689   2.528761   6.203682   2.548785   3.761081
    25  C    2.397309   6.210652   2.528988   2.548639   7.325776
    26  C    9.835714   4.341111  11.357991   8.997921   2.924761
    27  C    7.286804  11.145968   4.293021   8.916323  12.106896
    28  H    3.214867   5.937806   5.142011   1.093282   7.034813
    29  H    2.513142   5.165941   5.929376   1.094128   6.433225
    30  H    7.355748   2.161713   9.040655   6.369609   1.084066
    31  H    4.788566   8.909159   2.154416   6.362503   9.965028
    32  H    4.602294   2.166098   7.779087   4.878063   3.417973
    33  H    5.179335   7.939461   2.167879   4.886244   8.734491
    34  H    5.435368   2.168538   7.192609   4.117559   2.619693
    35  H    2.486340   7.062508   2.168919   4.117690   8.249042
    36  H    6.916236   3.431915   9.852365   7.364213   3.889797
    37  H    7.411882  10.010881   3.415077   7.350171  10.656902
    38  H    2.929884   2.843173   6.244175   2.665655   4.230747
    39  H    3.325847   6.348551   2.841309   2.667657   7.337246
    40  H    9.753160   4.609424  11.975482   9.639569   3.805350
    41  H    8.979306  11.795683   4.673703   9.353784  12.432645
    42  H    9.735614   4.274715  11.428645   8.667302   2.915824
    43  H    9.504227   4.276032  10.645637   8.684026   2.916540
    44  H   10.901231   5.389978  12.351497  10.086805   3.981202
    45  H    6.862980  11.183894   4.215751   8.567937  12.236228
    46  H    6.858915  10.393559   4.227044   8.591068  11.332720
    47  H    8.340180  12.130308   5.346162  10.003850  13.063624
                   11         12         13         14         15
    11  C    0.000000
    12  C   10.874426   0.000000
    13  C    1.392089  11.874038   0.000000
    14  C    9.062791   2.790771  10.237709   0.000000
    15  C    2.424599  10.364944   2.813270   8.880164   0.000000
    16  C    8.098419   3.745827   9.215922   2.523653   7.304646
    17  C    2.467762   9.166581   3.760699   7.176640   2.521691
    18  C   10.967480   1.409643  12.025619   2.413909  10.755137
    19  C    2.419807  12.123527   1.413189  10.705454   2.429013
    20  C    6.802600   6.203816   7.966391   4.533118   5.767616
    21  C    4.911414   7.886093   6.219942   5.664597   4.532687
    22  C   10.108153   2.426622  11.245583   1.394049  10.065177
    23  C    2.784206  11.405989   2.430000  10.073683   1.394575
    24  C    7.283724   4.951302   8.490610   3.069122   6.595203
    25  C    3.761242   8.496114   4.968852   6.541256   3.068313
    26  C   12.256914   2.453734  13.103266   5.127784  11.393347
    27  C    2.876782  12.875116   2.437790  11.044565   5.105138
    28  H    6.421669   8.318310   7.572864   6.447011   5.307477
    29  H    7.028970   7.572979   8.325188   5.353292   6.434415
    30  H   10.047431   2.153578  10.993349   3.410963   9.107347
    31  H    1.083412  10.844241   2.149159   8.864750   3.400698
    32  H    8.506270   3.874498   9.747463   1.083765   8.488330
    33  H    3.415260   9.945497   3.896819   8.562108   1.083668
    34  H    8.340402   4.004798   9.366174   3.464506   7.248046
    35  H    2.621734   9.218571   4.012848   7.030187   3.461766
    36  H   10.407253   3.399614  11.568664   2.167603  10.592551
    37  H    3.871085  11.791880   3.411826  10.646653   2.153360
    38  H    7.193471   5.230552   8.476953   2.851385   6.852169
    39  H    4.228145   8.590536   5.249644   6.896296   2.849575
    40  H   12.625966   2.423808  13.605595   4.350967  12.406156
    41  H    4.376861  13.453524   3.221548  12.296148   3.899130
    42  H   12.420433   2.768926  13.308993   5.193383  11.420791
    43  H   11.530812   2.770012  12.305377   5.194814  10.611826
    44  H   13.219972   3.317976  14.026970   6.081170  12.366064
    45  H    2.867646  13.043506   2.760051  11.037301   5.157785
    46  H    2.877279  12.028960   2.766122  10.230262   5.168168
    47  H    3.933986  13.786894   3.297378  11.998951   6.067881
                   16         17         18         19         20
    16  C    0.000000
    17  C    6.000894   0.000000
    18  C    4.272650   9.297821   0.000000
    19  C    9.406694   4.279607  12.432604   0.000000
    20  C    2.458170   4.440611   6.639191   8.094556   0.000000
    21  C    4.396716   2.459331   7.993661   6.649358   2.521649
    22  C    3.794578   8.374987   1.394791  11.760240   5.921420
    23  C    8.522185   3.787583  11.829817   1.397582   7.097340
    24  C    1.355638   5.020338   5.241233   8.766140   1.467789
    25  C    5.058967   1.355470   8.729905   5.251922   3.202140
    26  C    5.229260  10.655924   3.692206  13.120481   7.533358
    27  C   10.527128   5.155612  12.778145   3.707768   9.483950
    28  H    4.579999   4.042167   8.677861   7.670183   2.135164
    29  H    4.054017   4.573848   7.691252   8.677296   2.166804
    30  H    2.652953   8.235900   3.415339  11.033776   4.896086
    31  H    8.174671   2.645252  10.797814   3.405628   6.977202
    32  H    2.764598   6.567814   3.390057  10.310771   4.226803
    33  H    6.751109   2.770965  10.439131   3.402940   5.099008
    34  H    1.090074   6.294260   4.828650   9.393188   2.602556
    35  H    6.222548   1.089951   9.183306   4.830757   4.847854
    36  H    4.686958   8.749353   2.135734  12.195183   6.618278
    37  H    8.927371   4.670909  12.326604   2.148719   7.502496
    38  H    2.142144   4.942019   5.227852   8.920930   2.182901
    39  H    5.070669   2.141038   8.992256   5.240027   3.076621
    40  H    6.033148  11.091763   1.937293  13.975211   8.461846
    41  H   10.848266   6.120957  13.885145   1.961098   9.575480
    42  H    4.997875  10.668219   4.063059  13.287514   7.194102
    43  H    4.998265  10.050397   4.064401  12.263217   7.197237
    44  H    6.316660  11.687737   4.374918  14.026688   8.619827
    45  H   10.510193   4.908809  12.907821   4.074735   9.297129
    46  H    9.882644   4.920597  11.879782   4.080460   9.053731
    47  H   11.555691   6.243939  13.662450   4.396884  10.564425
                   21         22         23         24         25
    21  C    0.000000
    22  C    6.986234   0.000000
    23  C    5.920147  11.204820   0.000000
    24  C    3.139203   4.460393   7.903341   0.000000
    25  C    1.468100   7.839663   4.459186   4.007531   0.000000
    26  C    9.532499   4.874330  12.295159   6.578635   9.926090
    27  C    7.448788  11.889167   4.866566   9.760075   6.506774
    28  H    2.172156   7.837622   6.648285   3.440562   2.730280
    29  H    2.133869   6.691161   7.825699   2.756229   3.432845
    30  H    6.961572   3.890958  10.136666   4.007553   7.397218
    31  H    4.891007   9.851331   3.867551   7.306429   3.999760
    32  H    4.966404   2.141491   9.729410   2.795056   5.970699
    33  H    4.235138   9.802525   2.144049   6.072751   2.803287
    34  H    4.839447   4.610772   8.402673   2.077535   5.285475
    35  H    2.604847   8.155977   4.600014   5.190511   2.077644
    36  H    7.392162   1.083170  11.734135   5.152886   8.312114
    37  H    6.603223  11.789592   1.086902   8.393665   5.137532
    38  H    2.960259   4.207266   8.185733   1.085678   4.073500
    39  H    2.183599   8.226466   4.209043   4.149387   1.085860
    40  H    9.896992   3.212339  13.399599   7.107970  10.564967
    41  H    8.386986  13.333957   2.513597  10.324070   6.939895
    42  H    9.365353   5.112981  12.377055   6.332985   9.820858
    43  H    9.130635   5.114400  11.444099   6.339515   9.375988
    44  H   10.612324   5.667446  13.221303   7.664473  10.985855
    45  H    7.090704  11.934043   5.094820   9.627519   6.243378
    46  H    7.105247  11.003908   5.102933   9.181712   6.260642
    47  H    8.532392  12.789730   5.672172  10.815685   7.594256
                   26         27         28         29         30
    26  C    0.000000
    27  C   14.353690   0.000000
    28  H    9.631416   9.153293   0.000000
    29  H    9.225459   9.537073   1.791644   0.000000
    30  H    2.637833  12.353653   6.995783   6.645161   0.000000
    31  H   12.401690   2.557868   6.640515   6.985205  10.208237
    32  H    6.195638  10.449389   5.928170   4.668628   4.312050
    33  H   10.863799   6.170545   4.614646   5.922750   8.526104
    34  H    4.967924  10.878553   4.672991   4.523856   2.338579
    35  H   10.901520   4.875538   4.532959   4.671772   8.525816
    36  H    5.803272  12.001733   8.406615   7.118703   4.973859
    37  H   12.484896   5.819211   7.047755   8.377754  10.381882
    38  H    7.143900   9.504034   3.715645   2.575061   4.701661
    39  H    9.785710   7.084158   2.515904   3.705502   7.249326
    40  H    3.489599  14.310713  10.537459   9.600244   4.513910
    41  H   14.183163   5.075987   9.143688  10.329219  12.231846
    42  H    1.095692  14.662325   9.234241   8.852786   2.440568
    43  H    1.095690  13.617928   9.281813   9.034333   2.440146
    44  H    1.089125  15.250263  10.713796  10.308347   3.723751
    45  H   14.626156   1.096467   8.775129   9.113215  12.511953
    46  H   13.550994   1.096469   8.947555   9.187666  11.632174
    47  H   15.247279   1.088974  10.237521  10.614731  13.319286
                   31         32         33         34         35
    31  H    0.000000
    32  H    8.225811   0.000000
    33  H    4.306141   8.226352   0.000000
    34  H    8.551879   3.834421   6.582388   0.000000
    35  H    2.331938   6.313263   3.840226   6.684729   0.000000
    36  H   10.042447   2.488083  10.410278   5.582764   8.400621
    37  H    4.954445  10.377177   2.466063   8.679540   5.566316
    38  H    7.057295   2.214206   6.464249   3.069095   4.884396
    39  H    4.692193   6.454892   2.220488   5.071537   3.068596
    40  H   12.470812   5.306120  12.097447   6.409876  10.990628
    41  H    5.330004  11.996641   4.600516  10.687876   6.759367
    42  H   12.593628   6.221359  10.807561   4.638487  10.958988
    43  H   11.734438   6.221792  10.098288   4.630925  10.354814
    44  H   13.367116   7.160835  11.848102   6.047518  11.928624
    45  H    2.360556  10.357534   6.181133  10.908143   4.530543
    46  H    2.369776   9.659517   6.191290  10.285044   4.535745
    47  H    3.643007  11.413686   7.145903  11.908054   5.951201
                   36         37         38         39         40
    36  H    0.000000
    37  H   12.388673   0.000000
    38  H    4.698770   8.790835   0.000000
    39  H    8.811183   4.682665   4.476460   0.000000
    40  H    3.568713  13.847021   7.156779  10.782310   0.000000
    41  H   13.836933   2.339765  10.600424   6.721198  15.328574
    42  H    6.085352  12.534800   6.966612   9.618980   4.105671
    43  H    6.086395  11.597824   6.977644   9.190716   4.105761
    44  H    6.510350  13.384867   8.210384  10.837997   3.680297
    45  H   12.014775   6.087278   9.306053   6.888993  14.522455
    46  H   11.085923   6.094614   8.890199   6.909618  13.369422
    47  H   12.867191   6.545146  10.547378   8.155824  15.141400
                   41         42         43         44         45
    41  H    0.000000
    42  H   14.358514   0.000000
    43  H   13.251118   1.793168   0.000000
    44  H   15.031014   1.788600   1.788626   0.000000
    45  H    5.571364  14.873483  13.940214  15.561365   0.000000
    46  H    5.574274  13.906492  12.834460  14.428047   1.792689
    47  H    5.449366  15.596410  14.496150  16.117219   1.788028
                   46         47
    46  H    0.000000
    47  H    1.787824   0.000000
 Stoichiometry    C21H20O6
 Framework group  C1[X(C21H20O6)]
 Deg. of freedom   135
 Full point group                 C1      NOp   1
 Largest Abelian subgroup         C1      NOp   1
 Largest concise Abelian subgroup C1      NOp   1
                         Standard orientation:                         
 ---------------------------------------------------------------------
 Center     Atomic      Atomic             Coordinates (Angstroms)
 Number     Number       Type             X           Y           Z
 ---------------------------------------------------------------------
      1          8           0       -6.899661   -1.802572    1.087484
      2          8           0        6.815946   -2.074230   -0.791804
      3          8           0       -7.059798   -2.193819   -1.528540
      4          8           0        7.220106   -1.783652    1.811591
      5          8           0       -0.950440    2.688408    1.796838
      6          8           0        0.846735    2.150124   -2.215758
      7          6           0       -3.995670    0.276463   -0.076134
      8          6           0        4.022140    0.284256    0.028269
      9          6           0        0.013831    3.382654   -0.310481
     10          6           0       -4.916677   -0.329642    0.815066
     11          6           0        4.879552   -0.556982   -0.722116
     12          6           0       -5.928049   -1.144817    0.328299
     13          6           0        5.936933   -1.238385   -0.125839
     14          6           0       -4.134247    0.028559   -1.458839
     15          6           0        4.260959    0.419854    1.409037
     16          6           0       -2.950566    1.122760    0.482924
     17          6           0        2.936978    0.963946   -0.667007
     18          6           0       -6.051820   -1.381219   -1.055857
     19          6           0        6.159366   -1.088267    1.261638
     20          6           0       -1.000960    2.618599    0.546993
     21          6           0        0.981230    2.417671   -0.998731
     22          6           0       -5.151785   -0.791834   -1.943552
     23          6           0        5.318428   -0.261208    2.011326
     24          6           0       -1.987467    1.809815   -0.179007
     25          6           0        2.019961    1.818764   -0.151580
     26          6           0       -6.887790   -1.642940    2.530930
     27          6           0        6.642286   -2.266784   -2.220521
     28          1           0        0.554565    4.067631    0.348061
     29          1           0       -0.504656    3.946354   -1.091845
     30          1           0       -4.816705   -0.145181    1.878635
     31          1           0        4.697432   -0.663550   -1.784781
     32          1           0       -3.440277    0.476940   -2.160200
     33          1           0        3.623782    1.052220    2.016042
     34          1           0       -2.941328    1.217154    1.568864
     35          1           0        2.852197    0.761416   -1.734615
     36          1           0       -5.265595   -0.989105   -3.002509
     37          1           0        5.495655   -0.151782    3.078085
     38          1           0       -1.899463    1.788376   -1.260900
     39          1           0        2.009416    2.090535    0.899668
     40          1           0       -7.592676   -2.520672   -0.772103
     41          1           0        7.293310   -1.617716    2.771525
     42          1           0       -7.028497   -0.592334    2.808365
     43          1           0       -5.950474   -2.017530    2.957146
     44          1           0       -7.724404   -2.237724    2.894937
     45          1           0        6.742263   -1.320049   -2.764524
     46          1           0        5.670057   -2.720949   -2.445798
     47          1           0        7.442484   -2.945684   -2.511451
 ---------------------------------------------------------------------
 Rotational constants (GHZ):      0.2813964      0.0525629      0.0504705
 Standard basis: 6-31++G (6D, 7F)
 There are   411 symmetry adapted cartesian basis functions of A   symmetry.
 There are   411 symmetry adapted basis functions of A   symmetry.
   411 basis functions,   802 primitive gaussians,   411 cartesian basis functions
    97 alpha electrons       97 beta electrons
       nuclear repulsion energy      2131.0769412409 Hartrees.
 NAtoms=   47 NActive=   47 NUniq=   47 SFac= 1.00D+00 NAtFMM=   60 NAOKFM=F Big=F
 Integral buffers will be    262144 words long.
 Regular integral format.
 Two-electron integral symmetry is turned on.
 One-electron integrals computed using PRISM.
 NBasis=   411 RedAO= T EigKep=  1.43D-06  NBF=   411
 NBsUse=   405 1.00D-06 EigRej=  8.77D-07 NBFU=   405
 ExpMin= 3.60D-02 ExpMax= 5.48D+03 ExpMxC= 8.25D+02 IAcc=3 IRadAn=         5 AccDes= 0.00D+00
 Harris functional with IExCor=  402 and IRadAn=       5 diagonalized for initial guess.
 HarFok:  IExCor=  402 AccDes= 0.00D+00 IRadAn=         5 IDoV= 1 UseB2=F ITyADJ=14
 ICtDFT=  3500011 ScaDFX=  1.000000  1.000000  1.000000  1.000000
 FoFCou: FMM=F IPFlag=           0 FMFlag=      100000 FMFlg1=           0
         NFxFlg=           0 DoJE=T BraDBF=F KetDBF=T FulRan=T
         wScrn=  0.000000 ICntrl=     500 IOpCl=  0 I1Cent=   200000004 NGrid=           0
         NMat0=    1 NMatS0=      1 NMatT0=    0 NMatD0=    1 NMtDS0=    0 NMtDT0=    0
 Petite list used in FoFCou.
 Requested convergence on RMS density matrix=1.00D-08 within 128 cycles.
 Requested convergence on MAX density matrix=1.00D-06.
 Requested convergence on             energy=1.00D-06.
 No special actions if energy rises.
 SCF Done:  E(RB3LYP) =  -1263.26069645     A.U. after   17 cycles
            NFock= 17  Conv=0.31D-08     -V/T= 2.0058
 DoSCS=F DFT=T ScalE2(SS,OS)=  1.000000  1.000000
 ExpMin= 3.60D-02 ExpMax= 5.48D+03 ExpMxC= 8.25D+02 IAcc=3 IRadAn=         5 AccDes= 0.00D+00
 HarFok:  IExCor=  205 AccDes= 0.00D+00 IRadAn=         5 IDoV=-2 UseB2=F ITyADJ=14
 ICtDFT= 12500011 ScaDFX=  1.000000  1.000000  1.000000  1.000000
 Range of M.O.s used for correlation:    28   405
 NBasis=   411 NAE=    97 NBE=    97 NFC=    27 NFV=     0
 NROrb=    378 NOA=    70 NOB=    70 NVA=   308 NVB=   308

 **** Warning!!: The largest alpha MO coefficient is  0.16536668D+03

 Orbital symmetries:
       Occupied  (A) (A) (A) (A) (A) (A) (A) (A) (A) (A) (A) (A)
                 (A) (A) (A) (A) (A) (A) (A) (A) (A) (A) (A) (A)
                 (A) (A) (A) (A) (A) (A) (A) (A) (A) (A) (A) (A)
                 (A) (A) (A) (A) (A) (A) (A) (A) (A) (A) (A) (A)
                 (A) (A) (A) (A) (A) (A) (A) (A) (A) (A) (A) (A)
                 (A) (A) (A) (A) (A) (A) (A) (A) (A) (A) (A) (A)
                 (A) (A) (A) (A) (A) (A) (A) (A) (A) (A) (A) (A)
                 (A) (A) (A) (A) (A) (A) (A) (A) (A) (A) (A) (A)
                 (A)
       Virtual   (A) (A) (A) (A) (A) (A) (A) (A) (A) (A) (A) (A)
                 (A) (A) (A) (A) (A) (A) (A) (A) (A) (A) (A) (A)
                 (A) (A) (A) (A) (A) (A) (A) (A) (A) (A) (A) (A)
                 (A) (A) (A) (A) (A) (A) (A) (A) (A) (A) (A) (A)
                 (A) (A) (A) (A) (A) (A) (A) (A) (A) (A) (A) (A)
                 (A) (A) (A) (A) (A) (A) (A) (A) (A) (A) (A) (A)
                 (A) (A) (A) (A) (A) (A) (A) (A) (A) (A) (A) (A)
                 (A) (A) (A) (A) (A) (A) (A) (A) (A) (A) (A) (A)
                 (A) (A) (A) (A) (A) (A) (A) (A) (A) (A) (A) (A)
                 (A) (A) (A) (A) (A) (A) (A) (A) (A) (A) (A) (A)
                 (A) (A) (A) (A) (A) (A) (A) (A) (A) (A) (A) (A)
                 (A) (A) (A) (A) (A) (A) (A) (A) (A) (A) (A) (A)
                 (A) (A) (A) (A) (A) (A) (A) (A) (A) (A) (A) (A)
                 (A) (A) (A) (A) (A) (A) (A) (A) (A) (A) (A) (A)
                 (A) (A) (A) (A) (A) (A) (A) (A) (A) (A) (A) (A)
                 (A) (A) (A) (A) (A) (A) (A) (A) (A) (A) (A) (A)
                 (A) (A) (A) (A) (A) (A) (A) (A) (A) (A) (A) (A)
                 (A) (A) (A) (A) (A) (A) (A) (A) (A) (A) (A) (A)
                 (A) (A) (A) (A) (A) (A) (A) (A) (A) (A) (A) (A)
                 (A) (A) (A) (A) (A) (A) (A) (A) (A) (A) (A) (A)
                 (A) (A) (A) (A) (A) (A) (A) (A) (A) (A) (A) (A)
                 (A) (A) (A) (A) (A) (A) (A) (A) (A) (A) (A) (A)
                 (A) (A) (A) (A) (A) (A) (A) (A) (A) (A) (A) (A)
                 (A) (A) (A) (A) (A) (A) (A) (A) (A) (A) (A) (A)
                 (A) (A) (A) (A) (A) (A) (A) (A) (A) (A) (A) (A)
                 (A) (A) (A) (A) (A) (A) (A) (A)
    12 initial guesses have been made.
 Convergence on wavefunction:    0.001000000000000
 Iteration     1 Dimension    12 NMult     0 NNew     12
 CISAX will form    12 AO SS matrices at one time.
 New state      1 was old state      5
 New state      3 was old state      4
 Iteration     2 Dimension    18 NMult    12 NNew      6
 New state      2 was old state      3
 New state      3 was old state      2
 Iteration     3 Dimension    24 NMult    18 NNew      6
 Iteration     4 Dimension    30 NMult    24 NNew      6
 Iteration     5 Dimension    36 NMult    30 NNew      6
 Iteration     6 Dimension    40 NMult    36 NNew      4
 ***********************************************************************
 Excited states from <AA,BB:AA,BB> singles matrix:
 ***********************************************************************
 
 Ground to excited state transition densities written to RWF  633
 Ground to excited state transition electric dipole moments (Au):
       state          X           Y           Z        Dip. S.      Osc.
         1        -1.6371     -0.0016     -0.2677      2.7516      0.2080
         2         1.2623     -0.1473      0.5317      1.8977      0.1484
         3         0.3884      0.7166      0.0358      0.6657      0.0527
 Ground to excited state transition velocity dipole moments (Au):
       state          X           Y           Z        Dip. S.      Osc.
         1         0.1578      0.0003      0.0261      0.0256      0.1504
         2        -0.1255      0.0141     -0.0519      0.0186      0.1060
         3        -0.0394     -0.0723     -0.0036      0.0068      0.0382
 Ground to excited state transition magnetic dipole moments (Au):
       state          X           Y           Z
         1        -0.2152     -0.2442     -1.6909
         2        -0.0975      0.1520      0.1586
         3        -0.0231     -0.3426      0.1585
 Ground to excited state transition velocity quadrupole moments (Au):
       state          XX          YY          ZZ          XY          XZ          YZ
         1         0.0753     -0.0221      0.0150     -0.3539      0.0939     -0.0332
         2        -0.4001      0.0539     -0.0070      0.3886     -0.1924     -0.0654
         3         1.2461     -0.2362      0.0163      0.1739      0.3198     -0.0011
 <0|del|b> * <b|rxdel|0> + <0|del|b> * <b|delr+rdel|0>
 Rotatory Strengths (R) in cgs (10**-40 erg-esu-cm/Gauss)
       state          XX          YY          ZZ    R(velocity)    E-M Angle
         1      -166.4715   -230.8686    -89.7280   -162.3560      106.48
         2       -70.9603     97.6063     10.4351     12.3604       79.20
         3       139.0853      3.0080      7.4966     49.8633       36.37
 1/2[<0|r|b>*<b|rxdel|0> + (<0|rxdel|b>*<b|r|0>)*]
 Rotatory Strengths (R) in cgs (10**-40 erg-esu-cm/Gauss)
       state          XX          YY          ZZ     R(length)
         1      -249.1854     -0.2818   -320.0918   -189.8530
         2        87.0256     15.8381    -59.6363     14.4091
         3         6.3460    173.6373     -4.0127     58.6569
  1/2[<0|del|b>*<b|r|0> + (<0|r|b>*<b|del|0>)*] (Au)
       state          X           Y           Z        Dip. S.   Osc.(frdel)
         1        -0.2583      0.0000     -0.0070      0.2653      0.1769
         2        -0.1584     -0.0021     -0.0276      0.1881      0.1254
         3        -0.0153     -0.0518     -0.0001      0.0672      0.0448

 Excitation energies and oscillator strengths:
 
 Excited State   1:      Singlet-A      3.0858 eV  401.79 nm  f=0.2080  <S**2>=0.000
      92 -> 99        -0.15047
      95 -> 98         0.51329
      96 -> 98        -0.18731
      97 -> 98        -0.40723
 This state for optimization and/or second-order correction.
 Total Energy, E(TD-HF/TD-KS) =  -1263.14729500    
 Copying the excited state density for this state as the 1-particle RhoCI density.
 
 Excited State   2:      Singlet-A      3.1913 eV  388.51 nm  f=0.1484  <S**2>=0.000
      92 -> 99        -0.14513
      95 -> 98         0.40613
      97 -> 98         0.53401
 
 Excited State   3:      Singlet-A      3.2285 eV  384.04 nm  f=0.0527  <S**2>=0.000
      96 -> 98         0.62447
      96 -> 99         0.15063
      97 -> 98        -0.15383
      97 -> 99         0.17645
 SavETr:  write IOETrn=   770 NScale= 10 NData=  16 NLR=1 NState=    3 LETran=      62.

 **********************************************************************

            Population analysis using the SCF density.

 **********************************************************************

 Orbital symmetries:
       Occupied  (A) (A) (A) (A) (A) (A) (A) (A) (A) (A) (A) (A)
                 (A) (A) (A) (A) (A) (A) (A) (A) (A) (A) (A) (A)
                 (A) (A) (A) (A) (A) (A) (A) (A) (A) (A) (A) (A)
                 (A) (A) (A) (A) (A) (A) (A) (A) (A) (A) (A) (A)
                 (A) (A) (A) (A) (A) (A) (A) (A) (A) (A) (A) (A)
                 (A) (A) (A) (A) (A) (A) (A) (A) (A) (A) (A) (A)
                 (A) (A) (A) (A) (A) (A) (A) (A) (A) (A) (A) (A)
                 (A) (A) (A) (A) (A) (A) (A) (A) (A) (A) (A) (A)
                 (A)
       Virtual   (A) (A) (A) (A) (A) (A) (A) (A) (A) (A) (A) (A)
                 (A) (A) (A) (A) (A) (A) (A) (A) (A) (A) (A) (A)
                 (A) (A) (A) (A) (A) (A) (A) (A) (A) (A) (A) (A)
                 (A) (A) (A) (A) (A) (A) (A) (A) (A) (A) (A) (A)
                 (A) (A) (A) (A) (A) (A) (A) (A) (A) (A) (A) (A)
                 (A) (A) (A) (A) (A) (A) (A) (A) (A) (A) (A) (A)
                 (A) (A) (A) (A) (A) (A) (A) (A) (A) (A) (A) (A)
                 (A) (A) (A) (A) (A) (A) (A) (A) (A) (A) (A) (A)
                 (A) (A) (A) (A) (A) (A) (A) (A) (A) (A) (A) (A)
                 (A) (A) (A) (A) (A) (A) (A) (A) (A) (A) (A) (A)
                 (A) (A) (A) (A) (A) (A) (A) (A) (A) (A) (A) (A)
                 (A) (A) (A) (A) (A) (A) (A) (A) (A) (A) (A) (A)
                 (A) (A) (A) (A) (A) (A) (A) (A) (A) (A) (A) (A)
                 (A) (A) (A) (A) (A) (A) (A) (A) (A) (A) (A) (A)
                 (A) (A) (A) (A) (A) (A) (A) (A) (A) (A) (A) (A)
                 (A) (A) (A) (A) (A) (A) (A) (A) (A) (A) (A) (A)
                 (A) (A) (A) (A) (A) (A) (A) (A) (A) (A) (A) (A)
                 (A) (A) (A) (A) (A) (A) (A) (A) (A) (A) (A) (A)
                 (A) (A) (A) (A) (A) (A) (A) (A) (A) (A) (A) (A)
                 (A) (A) (A) (A) (A) (A) (A) (A) (A) (A) (A) (A)
                 (A) (A) (A) (A) (A) (A) (A) (A) (A) (A) (A) (A)
                 (A) (A) (A) (A) (A) (A) (A) (A) (A) (A) (A) (A)
                 (A) (A) (A) (A) (A) (A) (A) (A) (A) (A) (A) (A)
                 (A) (A) (A) (A) (A) (A) (A) (A) (A) (A) (A) (A)
                 (A) (A) (A) (A) (A) (A) (A) (A) (A) (A) (A) (A)
                 (A) (A) (A) (A) (A) (A) (A) (A)
 The electronic state is 1-A.
 Alpha  occ. eigenvalues --  -19.21048 -19.20013 -19.19465 -19.19180 -19.14395
 Alpha  occ. eigenvalues --  -19.14394 -10.28756 -10.28752 -10.27802 -10.27501
 Alpha  occ. eigenvalues --  -10.27441 -10.27135 -10.26451 -10.25013 -10.22041
 Alpha  occ. eigenvalues --  -10.21998 -10.21967 -10.21965 -10.21741 -10.21562
 Alpha  occ. eigenvalues --  -10.21271 -10.21134 -10.20969 -10.20798 -10.19991
 Alpha  occ. eigenvalues --  -10.19837 -10.19808  -1.10110  -1.09292  -1.07247
 Alpha  occ. eigenvalues --   -1.07128  -1.04994  -1.04556  -0.88543  -0.88487
 Alpha  occ. eigenvalues --   -0.82273  -0.81947  -0.78964  -0.78263  -0.77973
 Alpha  occ. eigenvalues --   -0.76619  -0.75256  -0.72565  -0.71700  -0.67596
 Alpha  occ. eigenvalues --   -0.66179  -0.64271  -0.63765  -0.61094  -0.59482
 Alpha  occ. eigenvalues --   -0.57707  -0.57490  -0.55591  -0.54248  -0.53393
 Alpha  occ. eigenvalues --   -0.52180  -0.51399  -0.50812  -0.50046  -0.49417
 Alpha  occ. eigenvalues --   -0.49164  -0.48102  -0.47622  -0.47075  -0.46908
 Alpha  occ. eigenvalues --   -0.45738  -0.45373  -0.44688  -0.44146  -0.43569
 Alpha  occ. eigenvalues --   -0.43366  -0.43158  -0.41853  -0.41410  -0.41001
 Alpha  occ. eigenvalues --   -0.40409  -0.39642  -0.38453  -0.38059  -0.37911
 Alpha  occ. eigenvalues --   -0.37624  -0.36789  -0.36668  -0.36638  -0.36261
 Alpha  occ. eigenvalues --   -0.36124  -0.35408  -0.34622  -0.33998  -0.29512
 Alpha  occ. eigenvalues --   -0.29256  -0.26703  -0.26226  -0.25729  -0.24994
 Alpha  occ. eigenvalues --   -0.22439  -0.22287
 Alpha virt. eigenvalues --   -0.09415  -0.07849  -0.02136  -0.02089  -0.02047
 Alpha virt. eigenvalues --   -0.01729  -0.01093  -0.00920  -0.00720   0.00222
 Alpha virt. eigenvalues --    0.00260   0.00863   0.01628   0.01781   0.02167
 Alpha virt. eigenvalues --    0.02394   0.02474   0.02972   0.03368   0.03691
 Alpha virt. eigenvalues --    0.04128   0.04564   0.05122   0.05297   0.05641
 Alpha virt. eigenvalues --    0.05892   0.06065   0.06412   0.06656   0.07025
 Alpha virt. eigenvalues --    0.07147   0.07591   0.07863   0.08278   0.08503
 Alpha virt. eigenvalues --    0.08666   0.09231   0.09410   0.09964   0.10145
 Alpha virt. eigenvalues --    0.10227   0.10373   0.10740   0.10970   0.11156
 Alpha virt. eigenvalues --    0.11301   0.11462   0.11889   0.11979   0.12127
 Alpha virt. eigenvalues --    0.12289   0.12356   0.12755   0.13001   0.13180
 Alpha virt. eigenvalues --    0.13481   0.13582   0.13621   0.13905   0.14163
 Alpha virt. eigenvalues --    0.14284   0.14581   0.14890   0.15043   0.15267
 Alpha virt. eigenvalues --    0.15454   0.15588   0.15861   0.15977   0.16209
 Alpha virt. eigenvalues --    0.16314   0.16559   0.16796   0.16913   0.17138
 Alpha virt. eigenvalues --    0.17386   0.17774   0.17842   0.18249   0.18355
 Alpha virt. eigenvalues --    0.18944   0.19202   0.19347   0.19561   0.19911
 Alpha virt. eigenvalues --    0.20060   0.20151   0.20415   0.20502   0.20902
 Alpha virt. eigenvalues --    0.21522   0.21651   0.21795   0.22213   0.22351
 Alpha virt. eigenvalues --    0.22921   0.23199   0.23313   0.23719   0.24044
 Alpha virt. eigenvalues --    0.24160   0.24465   0.24706   0.24845   0.25157
 Alpha virt. eigenvalues --    0.25817   0.26188   0.26266   0.26657   0.26978
 Alpha virt. eigenvalues --    0.27213   0.27468   0.27687   0.28177   0.28496
 Alpha virt. eigenvalues --    0.28643   0.29313   0.29493   0.29650   0.29756
 Alpha virt. eigenvalues --    0.30309   0.30494   0.30590   0.30689   0.30923
 Alpha virt. eigenvalues --    0.31339   0.31432   0.31701   0.31883   0.32210
 Alpha virt. eigenvalues --    0.32403   0.32813   0.33266   0.33961   0.34290
 Alpha virt. eigenvalues --    0.34425   0.35058   0.35149   0.35345   0.35501
 Alpha virt. eigenvalues --    0.35684   0.36226   0.36274   0.36575   0.36843
 Alpha virt. eigenvalues --    0.37495   0.37795   0.38015   0.38515   0.38757
 Alpha virt. eigenvalues --    0.38990   0.39588   0.39888   0.40634   0.40797
 Alpha virt. eigenvalues --    0.41173   0.41851   0.42291   0.42671   0.42959
 Alpha virt. eigenvalues --    0.43657   0.43966   0.45008   0.45192   0.45583
 Alpha virt. eigenvalues --    0.46445   0.46957   0.47639   0.48005   0.49525
 Alpha virt. eigenvalues --    0.50082   0.50631   0.51964   0.53491   0.55248
 Alpha virt. eigenvalues --    0.55615   0.58925   0.59426   0.62121   0.62494
 Alpha virt. eigenvalues --    0.65136   0.65331   0.67402   0.69188   0.69891
 Alpha virt. eigenvalues --    0.70195   0.71117   0.71247   0.72111   0.72162
 Alpha virt. eigenvalues --    0.72286   0.72650   0.73115   0.73321   0.73830
 Alpha virt. eigenvalues --    0.73888   0.74603   0.74747   0.74986   0.75560
 Alpha virt. eigenvalues --    0.76028   0.77076   0.77570   0.78408   0.78979
 Alpha virt. eigenvalues --    0.80181   0.80348   0.80638   0.80982   0.81173
 Alpha virt. eigenvalues --    0.82710   0.83377   0.84104   0.84492   0.84744
 Alpha virt. eigenvalues --    0.85065   0.86422   0.86787   0.88022   0.91763
 Alpha virt. eigenvalues --    0.91794   0.92198   0.93235   0.93925   0.97565
 Alpha virt. eigenvalues --    0.98711   0.98871   0.99421   1.00829   1.02982
 Alpha virt. eigenvalues --    1.03326   1.03463   1.04042   1.05016   1.07065
 Alpha virt. eigenvalues --    1.08186   1.08718   1.09458   1.10823   1.11173
 Alpha virt. eigenvalues --    1.11962   1.13171   1.14230   1.14530   1.16106
 Alpha virt. eigenvalues --    1.17082   1.17391   1.18856   1.19478   1.20156
 Alpha virt. eigenvalues --    1.20213   1.20901   1.21541   1.21819   1.22084
 Alpha virt. eigenvalues --    1.22279   1.23434   1.24749   1.25742   1.26175
 Alpha virt. eigenvalues --    1.26752   1.27509   1.28030   1.29157   1.29569
 Alpha virt. eigenvalues --    1.30389   1.30705   1.31469   1.32047   1.32828
 Alpha virt. eigenvalues --    1.34156   1.34307   1.35336   1.35710   1.36261
 Alpha virt. eigenvalues --    1.37309   1.37584   1.37986   1.39960   1.40608
 Alpha virt. eigenvalues --    1.41863   1.43442   1.43890   1.44595   1.45172
 Alpha virt. eigenvalues --    1.46225   1.46540   1.47442   1.49658   1.51494
 Alpha virt. eigenvalues --    1.55589   1.56586   1.60512   1.61759   1.63037
 Alpha virt. eigenvalues --    1.65961   1.68567   1.69073   1.72081   1.75982
 Alpha virt. eigenvalues --    1.84160   1.85586   1.96600   1.97921   2.05961
 Alpha virt. eigenvalues --    2.11821   2.31838   2.33770
          Condensed to atoms (all electrons):
               1          2          3          4          5          6
     1  O    8.757728   0.000000   0.017182   0.000000  -0.000006   0.000000
     2  O    0.000000   8.596304   0.000000   0.045117   0.000000  -0.000005
     3  O    0.017182   0.000000   8.588785   0.000000   0.000000   0.000000
     4  O    0.000000   0.045117   0.000000   8.545596   0.000000   0.000000
     5  O   -0.000006   0.000000   0.000000   0.000000   8.373803   0.002663
     6  O    0.000000  -0.000005   0.000000   0.000000   0.002663   8.384026
     7  C    0.019593  -0.000002  -0.029651   0.000000   0.017386   0.035788
     8  C   -0.000001  -0.038679   0.000000  -0.064798   0.030200   0.012692
     9  C    0.000120   0.000089   0.000031   0.000051  -0.451259  -0.502292
    10  C    0.241793   0.000000   0.121790   0.000000  -0.007226   0.001740
    11  C    0.000000   0.229915   0.000000   0.273531   0.001986  -0.006688
    12  C    0.194088   0.000000   0.576722   0.000000  -0.001969   0.000086
    13  C    0.000000   0.156502   0.000000  -0.143422   0.000154  -0.002615
    14  C   -0.011316   0.000000  -0.081004   0.000000  -0.022463  -0.002915
    15  C    0.000000  -0.118774   0.000000   0.046329  -0.004041  -0.020296
    16  C   -0.001800  -0.000002  -0.001878   0.000001  -0.181885   0.050115
    17  C   -0.000003  -0.009746   0.000000  -0.007220   0.038227  -0.200993
    18  C   -0.608945   0.000000   0.015636   0.000000  -0.001806   0.000109
    19  C    0.000000  -0.472710   0.000000  -0.239795  -0.000045  -0.001556
    20  C    0.000471  -0.000005   0.000474  -0.000014   0.832253  -0.153266
    21  C    0.000000  -0.000430  -0.000019   0.000833  -0.173327   0.794268
    22  C    0.101024   0.000000  -0.694065   0.000000  -0.001519  -0.001174
    23  C    0.000000   0.203555   0.000000   0.058653  -0.001098  -0.000584
    24  C    0.002064  -0.000010  -0.000700   0.000001  -0.153035   0.151553
    25  C   -0.000007   0.003726  -0.000002   0.000342   0.141658  -0.103866
    26  C   -0.119114   0.000000  -0.006291   0.000000   0.000042  -0.000001
    27  C    0.000000  -0.098954   0.000000  -0.004143  -0.000001   0.000045
    28  H    0.000001  -0.000007   0.000001   0.000005  -0.005723   0.001960
    29  H    0.000000   0.000002   0.000000   0.000000   0.003403  -0.012085
    30  H   -0.036641   0.000000  -0.005991   0.000000   0.001227   0.000030
    31  H    0.000000  -0.024539   0.000000  -0.006548   0.000051   0.000512
    32  H   -0.002269   0.000000   0.002520   0.000000  -0.000079  -0.001415
    33  H    0.000000  -0.006037   0.000000  -0.000227   0.000073  -0.001104
    34  H   -0.001340   0.000000   0.000509   0.000000  -0.006093  -0.001038
    35  H    0.000000  -0.002798   0.000000   0.000253  -0.001110  -0.003997
    36  H    0.001585   0.000000  -0.035019   0.000000   0.000010  -0.000001
    37  H    0.000000   0.004073   0.000000   0.000288  -0.000010   0.000058
    38  H    0.000364  -0.000004   0.000054   0.000001   0.009478   0.004602
    39  H    0.000000   0.001306   0.000000  -0.000554  -0.006555   0.014232
    40  H    0.043156   0.000000   0.111176   0.000000  -0.000003   0.000000
    41  H    0.000000  -0.005548   0.000000   0.078506   0.000000  -0.000002
    42  H   -0.028564   0.000000   0.001105   0.000000  -0.000023   0.000000
    43  H   -0.028580   0.000000   0.001071   0.000000  -0.000020   0.000000
    44  H   -0.067489   0.000000  -0.001845   0.000000  -0.000001   0.000000
    45  H    0.000000  -0.022644   0.000000   0.000265   0.000000  -0.000017
    46  H    0.000000  -0.021902   0.000000   0.000256   0.000000  -0.000032
    47  H    0.000000  -0.074710   0.000000  -0.002109   0.000000  -0.000003
               7          8          9         10         11         12
     1  O    0.019593  -0.000001   0.000120   0.241793   0.000000   0.194088
     2  O   -0.000002  -0.038679   0.000089   0.000000   0.229915   0.000000
     3  O   -0.029651   0.000000   0.000031   0.121790   0.000000   0.576722
     4  O    0.000000  -0.064798   0.000051   0.000000   0.273531   0.000000
     5  O    0.017386   0.030200  -0.451259  -0.007226   0.001986  -0.001969
     6  O    0.035788   0.012692  -0.502292   0.001740  -0.006688   0.000086
     7  C   17.298681  -0.041614  -1.146254   3.212578  -0.010159  -3.571655
     8  C   -0.041614  15.984871  -1.516144  -0.009905   1.802678   0.000813
     9  C   -1.146254  -1.516144  22.958555  -0.181426  -0.235610  -0.011791
    10  C    3.212578  -0.009905  -0.181426  24.558885  -0.000694   2.141813
    11  C   -0.010159   1.802678  -0.235610  -0.000694  28.228647   0.000354
    12  C   -3.571655   0.000813  -0.011791   2.141813   0.000354  25.873320
    13  C    0.000318  -5.160589   0.014935   0.000223   0.320973   0.000021
    14  C   -3.306393   0.022851  -0.236265  -5.225736   0.003215   1.415423
    15  C    0.010034  -3.344169  -0.006386   0.000538  -3.203232  -0.000386
    16  C   -1.360194   0.115355  -2.194402  -8.652117   0.038122  -0.289248
    17  C    0.002234   0.488287  -1.926969  -0.001204  -6.618933   0.002457
    18  C   -1.820651   0.000140  -0.016693  -8.114011  -0.000076  -7.811761
    19  C   -0.000707   0.423804   0.019202  -0.000183 -12.069061  -0.000012
    20  C   -2.305993   0.687236   1.566634  -1.210537   0.153816  -0.188468
    21  C    0.763663  -3.437469   1.899616   0.141080  -2.045886   0.001449
    22  C   -0.212096   0.001365  -0.020527   0.447610   0.000373 -11.673257
    23  C   -0.000136   1.719636  -0.031960   0.000476   0.915421   0.000041
    24  C   -1.563262   0.322497  -6.258214  -1.706257   0.084953   0.014567
    25  C    0.246771  -2.046553  -6.231888   0.054411  -1.922281   0.009550
    26  C   -0.161812  -0.000013  -0.000813   0.047643  -0.000003  -0.339455
    27  C    0.000006  -0.094302  -0.000826   0.000001  -0.092674   0.000000
    28  H   -0.025983  -0.040966   0.598340  -0.001898  -0.016004   0.000315
    29  H   -0.041610  -0.036461   0.619613  -0.015163  -0.006067  -0.002095
    30  H   -0.056537  -0.001988   0.022994   0.346790  -0.000295  -0.171594
    31  H   -0.002209   0.049346   0.020531  -0.000315  -0.012699   0.000016
    32  H   -0.546607   0.001437   0.008191  -0.175004   0.000957   0.328726
    33  H   -0.000021  -0.455896   0.028947   0.000460   0.026122  -0.000005
    34  H   -0.174052   0.017758  -0.125508  -0.388050   0.002924  -0.036861
    35  H    0.017457  -0.066815  -0.104447   0.002598  -0.134683  -0.000192
    36  H    0.097276  -0.000094   0.000775   0.090824  -0.000024  -0.202080
    37  H   -0.000037   0.139162  -0.001907  -0.000010   0.075256   0.000003
    38  H    0.250798  -0.001085  -0.027137   0.209518  -0.003672  -0.016609
    39  H    0.017277   0.114210  -0.069040   0.002195   0.076037  -0.000242
    40  H   -0.013085   0.000002  -0.000153  -0.053238   0.000000  -0.500727
    41  H    0.000000  -0.016646  -0.000059   0.000000  -0.003651   0.000000
    42  H    0.038243   0.000006  -0.000088   0.108835   0.000001  -0.081651
    43  H    0.033229   0.000023  -0.000129   0.110376   0.000005  -0.079884
    44  H   -0.023076  -0.000001   0.000018  -0.110049   0.000000   0.036817
    45  H   -0.000001   0.026690  -0.000074   0.000000   0.183545   0.000000
    46  H    0.000053   0.027369  -0.000333   0.000008   0.215493   0.000000
    47  H    0.000000  -0.014801   0.000027   0.000000  -0.148137   0.000000
              13         14         15         16         17         18
     1  O    0.000000  -0.011316   0.000000  -0.001800  -0.000003  -0.608945
     2  O    0.156502   0.000000  -0.118774  -0.000002  -0.009746   0.000000
     3  O    0.000000  -0.081004   0.000000  -0.001878   0.000000   0.015636
     4  O   -0.143422   0.000000   0.046329   0.000001  -0.007220   0.000000
     5  O    0.000154  -0.022463  -0.004041  -0.181885   0.038227  -0.001806
     6  O   -0.002615  -0.002915  -0.020296   0.050115  -0.200993   0.000109
     7  C    0.000318  -3.306393   0.010034  -1.360194   0.002234  -1.820651
     8  C   -5.160589   0.022851  -3.344169   0.115355   0.488287   0.000140
     9  C    0.014935  -0.236265  -0.006386  -2.194402  -1.926969  -0.016693
    10  C    0.000223  -5.225736   0.000538  -8.652117  -0.001204  -8.114011
    11  C    0.320973   0.003215  -3.203232   0.038122  -6.618933  -0.000076
    12  C    0.000021   1.415423  -0.000386  -0.289248   0.002457  -7.811761
    13  C   24.746223  -0.000058   2.612268   0.004991  -0.783879  -0.000002
    14  C   -0.000058  15.971348  -0.002645   4.692424   0.031480  -4.290654
    15  C    2.612268  -0.002645  16.030144  -0.016261   3.030050   0.000023
    16  C    0.004991   4.692424  -0.016261  13.604455   0.136803   0.083312
    17  C   -0.783879   0.031480   3.030050   0.136803  11.607456   0.000597
    18  C   -0.000002  -4.290654   0.000023   0.083312   0.000597  25.038426
    19  C   -7.066154   0.000196  -3.108773  -0.001391   0.355462   0.000003
    20  C    0.000988  -0.611388  -0.063688  -1.922377  -0.015565  -0.203114
    21  C   -0.205045  -0.101524   0.394487  -0.327933  -1.473602  -0.002032
    22  C   -0.000011  -1.600616  -0.000306  -1.857091  -0.000111   3.277531
    23  C   -9.087456  -0.000704  -5.853555  -0.003641  -2.073600  -0.000026
    24  C    0.012639  -0.322696  -0.044674   3.460774   0.428482  -0.093468
    25  C    0.706102   0.027751   0.071131   0.634942   2.944543   0.000214
    26  C    0.000000  -0.041511   0.000002  -0.137356   0.000006   0.293023
    27  C   -0.109218   0.000000   0.058242   0.000073  -0.075055   0.000000
    28  H   -0.002420  -0.006659   0.002752  -0.034930  -0.046842  -0.000148
    29  H    0.000616  -0.003822   0.001786  -0.055910  -0.026571  -0.001582
    30  H    0.000012  -0.347167   0.000308  -0.227009  -0.001387   0.367107
    31  H   -0.003892   0.000567  -0.132477  -0.000016  -0.052387   0.000012
    32  H    0.000128   0.926225   0.000051   0.166512   0.009542  -0.059727
    33  H    0.302312   0.000292   0.871932   0.004408  -0.030681   0.000076
    34  H   -0.000109   0.434201  -0.002770   0.638326   0.008000  -0.043133
    35  H   -0.078539  -0.004377   0.224001  -0.002628   0.445833  -0.000095
    36  H   -0.000002  -0.180776   0.000004  -0.080985  -0.000434  -0.034687
    37  H   -0.222779  -0.000003  -0.193405  -0.000116  -0.045541  -0.000001
    38  H   -0.001103  -0.387950  -0.002936  -0.349804  -0.040155   0.020468
    39  H   -0.006662  -0.008220  -0.334253  -0.021733  -0.218574  -0.000965
    40  H    0.000000   0.025282   0.000000   0.001080   0.000005   0.255064
    41  H    0.349555   0.000000   0.086299   0.000002   0.003489   0.000000
    42  H    0.000000   0.020580   0.000000   0.006959   0.000011  -0.085042
    43  H    0.000000   0.017451  -0.000006   0.007839   0.000008  -0.086117
    44  H    0.000000  -0.005599   0.000000  -0.004299   0.000000   0.105564
    45  H   -0.152626   0.000002   0.009891   0.000004  -0.006982   0.000000
    46  H   -0.175694  -0.000021   0.005612  -0.000015   0.001419  -0.000001
    47  H    0.107485   0.000000   0.001702   0.000003  -0.000621   0.000000
              19         20         21         22         23         24
     1  O    0.000000   0.000471   0.000000   0.101024   0.000000   0.002064
     2  O   -0.472710  -0.000005  -0.000430   0.000000   0.203555  -0.000010
     3  O    0.000000   0.000474  -0.000019  -0.694065   0.000000  -0.000700
     4  O   -0.239795  -0.000014   0.000833   0.000000   0.058653   0.000001
     5  O   -0.000045   0.832253  -0.173327  -0.001519  -0.001098  -0.153035
     6  O   -0.001556  -0.153266   0.794268  -0.001174  -0.000584   0.151553
     7  C   -0.000707  -2.305993   0.763663  -0.212096  -0.000136  -1.563262
     8  C    0.423804   0.687236  -3.437469   0.001365   1.719636   0.322497
     9  C    0.019202   1.566634   1.899616  -0.020527  -0.031960  -6.258214
    10  C   -0.000183  -1.210537   0.141080   0.447610   0.000476  -1.706257
    11  C  -12.069061   0.153816  -2.045886   0.000373   0.915421   0.084953
    12  C   -0.000012  -0.188468   0.001449 -11.673257   0.000041   0.014567
    13  C   -7.066154   0.000988  -0.205045  -0.000011  -9.087456   0.012639
    14  C    0.000196  -0.611388  -0.101524  -1.600616  -0.000704  -0.322696
    15  C   -3.108773  -0.063688   0.394487  -0.000306  -5.853555  -0.044674
    16  C   -0.001391  -1.922377  -0.327933  -1.857091  -0.003641   3.460774
    17  C    0.355462  -0.015565  -1.473602  -0.000111  -2.073600   0.428482
    18  C    0.000003  -0.203114  -0.002032   3.277531  -0.000026  -0.093468
    19  C   24.772975  -0.006398  -0.115349  -0.000004   2.959804  -0.004469
    20  C   -0.006398  16.414410  -3.925470  -0.059177   0.020734  -2.984946
    21  C   -0.115349  -3.925470  17.001360  -0.009300  -0.276935  -0.529991
    22  C   -0.000004  -0.059177  -0.009300  17.985970   0.000020  -0.200279
    23  C    2.959804   0.020734  -0.276935   0.000020  18.438077  -0.015451
    24  C   -0.004469  -2.984946  -0.529991  -0.200279  -0.015451  13.241894
    25  C    0.232484  -0.275912  -2.840187  -0.006931  -0.958927   1.998188
    26  C    0.000000  -0.005358   0.000352   0.178041   0.000001  -0.026326
    27  C    0.123977   0.000365  -0.007576   0.000000   0.021375   0.000205
    28  H    0.000342  -0.076539   0.055220  -0.000104  -0.003965  -0.021974
    29  H    0.000548   0.096386  -0.087421  -0.002741  -0.000358  -0.127423
    30  H   -0.000001   0.026173   0.008875   0.262596   0.000015   0.003328
    31  H    0.277442   0.008143  -0.009215   0.000075   0.116528  -0.002186
    32  H    0.000129  -0.041526   0.015214  -0.322503   0.000021  -0.047822
    33  H   -0.014149   0.018149   0.012653   0.000040  -0.486673   0.007124
    34  H   -0.000047  -0.036835  -0.066464  -0.060180  -0.000126   0.059489
    35  H   -0.019845  -0.054441   0.050127  -0.000801  -0.027268   0.005649
    36  H   -0.000003   0.007028  -0.000682   0.561753   0.000002   0.020149
    37  H   -0.239183  -0.000413  -0.002852   0.000001   0.747410  -0.000134
    38  H   -0.001140   0.171127  -0.028399   0.075671  -0.000447   0.406821
    39  H    0.014630  -0.092729   0.192904  -0.000708   0.138561  -0.058050
    40  H    0.000000  -0.000940   0.000020   0.277405   0.000000  -0.002702
    41  H    0.073494   0.000040  -0.000364   0.000000  -0.455707   0.000011
    42  H    0.000000  -0.000535  -0.000064  -0.029701   0.000000  -0.001946
    43  H    0.000000   0.000181  -0.000031  -0.027951   0.000000  -0.000421
    44  H    0.000000  -0.000011   0.000001   0.021490   0.000000   0.000224
    45  H   -0.078187  -0.000161  -0.000469  -0.000001  -0.008907   0.000024
    46  H   -0.097210   0.000083   0.001192   0.000001  -0.008211  -0.000020
    47  H    0.083045   0.000002  -0.000072   0.000000   0.000627   0.000006
              25         26         27         28         29         30
     1  O   -0.000007  -0.119114   0.000000   0.000001   0.000000  -0.036641
     2  O    0.003726   0.000000  -0.098954  -0.000007   0.000002   0.000000
     3  O   -0.000002  -0.006291   0.000000   0.000001   0.000000  -0.005991
     4  O    0.000342   0.000000  -0.004143   0.000005   0.000000   0.000000
     5  O    0.141658   0.000042  -0.000001  -0.005723   0.003403   0.001227
     6  O   -0.103866  -0.000001   0.000045   0.001960  -0.012085   0.000030
     7  C    0.246771  -0.161812   0.000006  -0.025983  -0.041610  -0.056537
     8  C   -2.046553  -0.000013  -0.094302  -0.040966  -0.036461  -0.001988
     9  C   -6.231888  -0.000813  -0.000826   0.598340   0.619613   0.022994
    10  C    0.054411   0.047643   0.000001  -0.001898  -0.015163   0.346790
    11  C   -1.922281  -0.000003  -0.092674  -0.016004  -0.006067  -0.000295
    12  C    0.009550  -0.339455   0.000000   0.000315  -0.002095  -0.171594
    13  C    0.706102   0.000000  -0.109218  -0.002420   0.000616   0.000012
    14  C    0.027751  -0.041511   0.000000  -0.006659  -0.003822  -0.347167
    15  C    0.071131   0.000002   0.058242   0.002752   0.001786   0.000308
    16  C    0.634942  -0.137356   0.000073  -0.034930  -0.055910  -0.227009
    17  C    2.944543   0.000006  -0.075055  -0.046842  -0.026571  -0.001387
    18  C    0.000214   0.293023   0.000000  -0.000148  -0.001582   0.367107
    19  C    0.232484   0.000000   0.123977   0.000342   0.000548  -0.000001
    20  C   -0.275912  -0.005358   0.000365  -0.076539   0.096386   0.026173
    21  C   -2.840187   0.000352  -0.007576   0.055220  -0.087421   0.008875
    22  C   -0.006931   0.178041   0.000000  -0.000104  -0.002741   0.262596
    23  C   -0.958927   0.000001   0.021375  -0.003965  -0.000358   0.000015
    24  C    1.998188  -0.026326   0.000205  -0.021974  -0.127423   0.003328
    25  C   13.250027   0.000054  -0.024113  -0.099656  -0.035381  -0.003392
    26  C    0.000054   5.531854   0.000000  -0.000011  -0.000037   0.016337
    27  C   -0.024113   0.000000   5.562371  -0.000041  -0.000024   0.000000
    28  H   -0.099656  -0.000011  -0.000041   0.514288  -0.036488   0.000266
    29  H   -0.035381  -0.000037  -0.000024  -0.036488   0.512252   0.000391
    30  H   -0.003392   0.016337   0.000000   0.000266   0.000391   0.666538
    31  H    0.013828   0.000000  -0.022409   0.000519   0.000131  -0.000026
    32  H    0.010905  -0.002027  -0.000003  -0.000991   0.003629  -0.019131
    33  H    0.008213   0.000000   0.003183   0.004949   0.000136   0.000021
    34  H    0.017322   0.000240   0.000001  -0.000760  -0.002104  -0.065376
    35  H   -0.019801   0.000002   0.008199  -0.003043   0.000075   0.000229
    36  H   -0.000334   0.003487   0.000000   0.000065  -0.000142   0.009097
    37  H   -0.003923   0.000000  -0.000260  -0.000340  -0.000018  -0.000002
    38  H   -0.070686   0.000774   0.000011   0.008325  -0.018363   0.005410
    39  H    0.431409   0.000007  -0.000862  -0.020726   0.003479   0.000517
    40  H    0.000021   0.000744   0.000000  -0.000002  -0.000009   0.000351
    41  H   -0.000387   0.000000   0.000688   0.000001  -0.000001   0.000000
    42  H    0.000028   0.372550   0.000000  -0.000004   0.000000  -0.016793
    43  H    0.000025   0.373800   0.000000  -0.000004   0.000000  -0.017295
    44  H   -0.000001   0.390357   0.000000   0.000001  -0.000001   0.008667
    45  H   -0.003809   0.000000   0.367835   0.000005   0.000002   0.000000
    46  H   -0.000838   0.000000   0.368370  -0.000012  -0.000006   0.000000
    47  H    0.000555   0.000000   0.386947  -0.000001   0.000001   0.000000
              31         32         33         34         35         36
     1  O    0.000000  -0.002269   0.000000  -0.001340   0.000000   0.001585
     2  O   -0.024539   0.000000  -0.006037   0.000000  -0.002798   0.000000
     3  O    0.000000   0.002520   0.000000   0.000509   0.000000  -0.035019
     4  O   -0.006548   0.000000  -0.000227   0.000000   0.000253   0.000000
     5  O    0.000051  -0.000079   0.000073  -0.006093  -0.001110   0.000010
     6  O    0.000512  -0.001415  -0.001104  -0.001038  -0.003997  -0.000001
     7  C   -0.002209  -0.546607  -0.000021  -0.174052   0.017457   0.097276
     8  C    0.049346   0.001437  -0.455896   0.017758  -0.066815  -0.000094
     9  C    0.020531   0.008191   0.028947  -0.125508  -0.104447   0.000775
    10  C   -0.000315  -0.175004   0.000460  -0.388050   0.002598   0.090824
    11  C   -0.012699   0.000957   0.026122   0.002924  -0.134683  -0.000024
    12  C    0.000016   0.328726  -0.000005  -0.036861  -0.000192  -0.202080
    13  C   -0.003892   0.000128   0.302312  -0.000109  -0.078539  -0.000002
    14  C    0.000567   0.926225   0.000292   0.434201  -0.004377  -0.180776
    15  C   -0.132477   0.000051   0.871932  -0.002770   0.224001   0.000004
    16  C   -0.000016   0.166512   0.004408   0.638326  -0.002628  -0.080985
    17  C   -0.052387   0.009542  -0.030681   0.008000   0.445833  -0.000434
    18  C    0.000012  -0.059727   0.000076  -0.043133  -0.000095  -0.034687
    19  C    0.277442   0.000129  -0.014149  -0.000047  -0.019845  -0.000003
    20  C    0.008143  -0.041526   0.018149  -0.036835  -0.054441   0.007028
    21  C   -0.009215   0.015214   0.012653  -0.066464   0.050127  -0.000682
    22  C    0.000075  -0.322503   0.000040  -0.060180  -0.000801   0.561753
    23  C    0.116528   0.000021  -0.486673  -0.000126  -0.027268   0.000002
    24  C   -0.002186  -0.047822   0.007124   0.059489   0.005649   0.020149
    25  C    0.013828   0.010905   0.008213   0.017322  -0.019801  -0.000334
    26  C    0.000000  -0.002027   0.000000   0.000240   0.000002   0.003487
    27  C   -0.022409  -0.000003   0.003183   0.000001   0.008199   0.000000
    28  H    0.000519  -0.000991   0.004949  -0.000760  -0.003043   0.000065
    29  H    0.000131   0.003629   0.000136  -0.002104   0.000075  -0.000142
    30  H   -0.000026  -0.019131   0.000021  -0.065376   0.000229   0.009097
    31  H    0.636491   0.000098  -0.006424   0.000226  -0.044132  -0.000007
    32  H    0.000098   0.758919  -0.000198   0.014983  -0.000363  -0.043251
    33  H   -0.006424  -0.000198   0.727763   0.000074   0.000324   0.000003
    34  H    0.000226   0.014983   0.000074   0.616219  -0.001667  -0.004161
    35  H   -0.044132  -0.000363   0.000324  -0.001667   0.588185   0.000030
    36  H   -0.000007  -0.043251   0.000003  -0.004161   0.000030   0.516537
    37  H    0.004506   0.000003  -0.043632   0.000009  -0.001623   0.000000
    38  H    0.000145  -0.119006   0.001713   0.007819  -0.002803   0.013354
    39  H   -0.002975   0.001368  -0.115283  -0.004621   0.026039  -0.000012
    40  H    0.000000  -0.000421   0.000000   0.000401   0.000000   0.004621
    41  H   -0.000223   0.000000   0.009591   0.000001  -0.000020   0.000000
    42  H    0.000000   0.001026   0.000001   0.002604  -0.000001  -0.000754
    43  H    0.000000   0.000894  -0.000003   0.002694  -0.000001  -0.000680
    44  H    0.000000  -0.000251   0.000000  -0.000503   0.000000   0.000280
    45  H   -0.015475   0.000004   0.000379  -0.000001   0.001644   0.000000
    46  H   -0.017400  -0.000014  -0.000063   0.000000   0.002100   0.000001
    47  H    0.005922   0.000000   0.000224   0.000000  -0.000080   0.000000
              37         38         39         40         41         42
     1  O    0.000000   0.000364   0.000000   0.043156   0.000000  -0.028564
     2  O    0.004073  -0.000004   0.001306   0.000000  -0.005548   0.000000
     3  O    0.000000   0.000054   0.000000   0.111176   0.000000   0.001105
     4  O    0.000288   0.000001  -0.000554   0.000000   0.078506   0.000000
     5  O   -0.000010   0.009478  -0.006555  -0.000003   0.000000  -0.000023
     6  O    0.000058   0.004602   0.014232   0.000000  -0.000002   0.000000
     7  C   -0.000037   0.250798   0.017277  -0.013085   0.000000   0.038243
     8  C    0.139162  -0.001085   0.114210   0.000002  -0.016646   0.000006
     9  C   -0.001907  -0.027137  -0.069040  -0.000153  -0.000059  -0.000088
    10  C   -0.000010   0.209518   0.002195  -0.053238   0.000000   0.108835
    11  C    0.075256  -0.003672   0.076037   0.000000  -0.003651   0.000001
    12  C    0.000003  -0.016609  -0.000242  -0.500727   0.000000  -0.081651
    13  C   -0.222779  -0.001103  -0.006662   0.000000   0.349555   0.000000
    14  C   -0.000003  -0.387950  -0.008220   0.025282   0.000000   0.020580
    15  C   -0.193405  -0.002936  -0.334253   0.000000   0.086299   0.000000
    16  C   -0.000116  -0.349804  -0.021733   0.001080   0.000002   0.006959
    17  C   -0.045541  -0.040155  -0.218574   0.000005   0.003489   0.000011
    18  C   -0.000001   0.020468  -0.000965   0.255064   0.000000  -0.085042
    19  C   -0.239183  -0.001140   0.014630   0.000000   0.073494   0.000000
    20  C   -0.000413   0.171127  -0.092729  -0.000940   0.000040  -0.000535
    21  C   -0.002852  -0.028399   0.192904   0.000020  -0.000364  -0.000064
    22  C    0.000001   0.075671  -0.000708   0.277405   0.000000  -0.029701
    23  C    0.747410  -0.000447   0.138561   0.000000  -0.455707   0.000000
    24  C   -0.000134   0.406821  -0.058050  -0.002702   0.000011  -0.001946
    25  C   -0.003923  -0.070686   0.431409   0.000021  -0.000387   0.000028
    26  C    0.000000   0.000774   0.000007   0.000744   0.000000   0.372550
    27  C   -0.000260   0.000011  -0.000862   0.000000   0.000688   0.000000
    28  H   -0.000340   0.008325  -0.020726  -0.000002   0.000001  -0.000004
    29  H   -0.000018  -0.018363   0.003479  -0.000009  -0.000001   0.000000
    30  H   -0.000002   0.005410   0.000517   0.000351   0.000000  -0.016793
    31  H    0.004506   0.000145  -0.002975   0.000000  -0.000223   0.000000
    32  H    0.000003  -0.119006   0.001368  -0.000421   0.000000   0.001026
    33  H   -0.043632   0.001713  -0.115283   0.000000   0.009591   0.000001
    34  H    0.000009   0.007819  -0.004621   0.000401   0.000001   0.002604
    35  H   -0.001623  -0.002803   0.026039   0.000000  -0.000020  -0.000001
    36  H    0.000000   0.013354  -0.000012   0.004621   0.000000  -0.000754
    37  H    0.576548  -0.000042   0.015021   0.000000  -0.025169   0.000000
    38  H   -0.000042   0.732073  -0.007422  -0.000028  -0.000001  -0.000327
    39  H    0.015021  -0.007422   0.753857  -0.000001  -0.000855  -0.000006
    40  H    0.000000  -0.000028  -0.000001   0.367242   0.000000  -0.000110
    41  H   -0.025169  -0.000001  -0.000855   0.000000   0.439206   0.000000
    42  H    0.000000  -0.000327  -0.000006  -0.000110   0.000000   0.533903
    43  H    0.000000  -0.000325   0.000006  -0.000186   0.000000  -0.050088
    44  H    0.000000   0.000088  -0.000001  -0.000814   0.000000  -0.031918
    45  H   -0.000245  -0.000018  -0.000103   0.000000   0.000049   0.000000
    46  H   -0.000017   0.000035   0.000095   0.000000  -0.000062   0.000000
    47  H   -0.000267  -0.000001  -0.000022   0.000000   0.000293   0.000000
              43         44         45         46         47
     1  O   -0.028580  -0.067489   0.000000   0.000000   0.000000
     2  O    0.000000   0.000000  -0.022644  -0.021902  -0.074710
     3  O    0.001071  -0.001845   0.000000   0.000000   0.000000
     4  O    0.000000   0.000000   0.000265   0.000256  -0.002109
     5  O   -0.000020  -0.000001   0.000000   0.000000   0.000000
     6  O    0.000000   0.000000  -0.000017  -0.000032  -0.000003
     7  C    0.033229  -0.023076  -0.000001   0.000053   0.000000
     8  C    0.000023  -0.000001   0.026690   0.027369  -0.014801
     9  C   -0.000129   0.000018  -0.000074  -0.000333   0.000027
    10  C    0.110376  -0.110049   0.000000   0.000008   0.000000
    11  C    0.000005   0.000000   0.183545   0.215493  -0.148137
    12  C   -0.079884   0.036817   0.000000   0.000000   0.000000
    13  C    0.000000   0.000000  -0.152626  -0.175694   0.107485
    14  C    0.017451  -0.005599   0.000002  -0.000021   0.000000
    15  C   -0.000006   0.000000   0.009891   0.005612   0.001702
    16  C    0.007839  -0.004299   0.000004  -0.000015   0.000003
    17  C    0.000008   0.000000  -0.006982   0.001419  -0.000621
    18  C   -0.086117   0.105564   0.000000  -0.000001   0.000000
    19  C    0.000000   0.000000  -0.078187  -0.097210   0.083045
    20  C    0.000181  -0.000011  -0.000161   0.000083   0.000002
    21  C   -0.000031   0.000001  -0.000469   0.001192  -0.000072
    22  C   -0.027951   0.021490  -0.000001   0.000001   0.000000
    23  C    0.000000   0.000000  -0.008907  -0.008211   0.000627
    24  C   -0.000421   0.000224   0.000024  -0.000020   0.000006
    25  C    0.000025  -0.000001  -0.003809  -0.000838   0.000555
    26  C    0.373800   0.390357   0.000000   0.000000   0.000000
    27  C    0.000000   0.000000   0.367835   0.368370   0.386947
    28  H   -0.000004   0.000001   0.000005  -0.000012  -0.000001
    29  H    0.000000  -0.000001   0.000002  -0.000006   0.000001
    30  H   -0.017295   0.008667   0.000000   0.000000   0.000000
    31  H    0.000000   0.000000  -0.015475  -0.017400   0.005922
    32  H    0.000894  -0.000251   0.000004  -0.000014   0.000000
    33  H   -0.000003   0.000000   0.000379  -0.000063   0.000224
    34  H    0.002694  -0.000503  -0.000001   0.000000   0.000000
    35  H   -0.000001   0.000000   0.001644   0.002100  -0.000080
    36  H   -0.000680   0.000280   0.000000   0.000001   0.000000
    37  H    0.000000   0.000000  -0.000245  -0.000017  -0.000267
    38  H   -0.000325   0.000088  -0.000018   0.000035  -0.000001
    39  H    0.000006  -0.000001  -0.000103   0.000095  -0.000022
    40  H   -0.000186  -0.000814   0.000000   0.000000   0.000000
    41  H    0.000000   0.000000   0.000049  -0.000062   0.000293
    42  H   -0.050088  -0.031918   0.000000   0.000000   0.000000
    43  H    0.534520  -0.031771   0.000000   0.000000   0.000000
    44  H   -0.031771   0.481424   0.000000   0.000000   0.000000
    45  H    0.000000   0.000000   0.559736  -0.059031  -0.031371
    46  H    0.000000   0.000000  -0.059031   0.561717  -0.032863
    47  H    0.000000   0.000000  -0.031371  -0.032863   0.474506
 Mulliken charges:
               1
     1  O   -0.473097
     2  O   -0.343085
     3  O   -0.580593
     4  O   -0.581199
     5  O   -0.433320
     6  O   -0.438533
     7  C    0.352415
     8  C    0.400563
     9  C   -0.460075
    10  C    0.010838
    11  C   -0.103795
    12  C    0.383360
    13  C   -0.134170
    14  C   -0.786803
    15  C   -1.004551
    16  C    0.078523
    17  C    0.122665
    18  C   -0.182567
    19  C    0.198837
    20  C    0.231113
    21  C    0.334794
    22  C   -0.409811
    23  C   -0.045222
    24  C   -0.054186
    25  C   -0.155324
    26  C   -0.369185
    27  C   -0.371433
    28  H    0.258885
    29  H    0.269434
    30  H    0.223347
    31  H    0.220466
    32  H    0.131127
    33  H    0.131232
    34  H    0.197998
    35  H    0.202826
    36  H    0.257245
    37  H    0.219591
    38  H    0.160817
    39  H    0.168027
    40  H    0.485848
    41  H    0.467472
    42  H    0.241765
    43  H    0.241368
    44  H    0.232697
    45  H    0.230046
    46  H    0.229941
    47  H    0.243714
 Sum of Mulliken charges =   0.00000
 Mulliken charges with hydrogens summed into heavy atoms:
               1
     1  O   -0.473097
     2  O   -0.343085
     3  O   -0.094745
     4  O   -0.113727
     5  O   -0.433320
     6  O   -0.438533
     7  C    0.352415
     8  C    0.400563
     9  C    0.068243
    10  C    0.234185
    11  C    0.116671
    12  C    0.383360
    13  C   -0.134170
    14  C   -0.655677
    15  C   -0.873319
    16  C    0.276521
    17  C    0.325491
    18  C   -0.182567
    19  C    0.198837
    20  C    0.231113
    21  C    0.334794
    22  C   -0.152566
    23  C    0.174369
    24  C    0.106631
    25  C    0.012702
    26  C    0.346645
    27  C    0.332267
 Electronic spatial extent (au):  <R**2>=          20740.2596
 Charge=              0.0000 electrons
 Dipole moment (field-independent basis, Debye):
    X=             -0.7105    Y=             -1.7885    Z=              3.2265  Tot=              3.7568
 Quadrupole moment (field-independent basis, Debye-Ang):
   XX=           -140.5754   YY=           -166.8324   ZZ=           -147.6629
   XY=              6.9975   XZ=            -16.5015   YZ=             -3.8419
 Traceless Quadrupole moment (field-independent basis, Debye-Ang):
   XX=             11.1148   YY=            -15.1421   ZZ=              4.0273
   XY=              6.9975   XZ=            -16.5015   YZ=             -3.8419
 Octapole moment (field-independent basis, Debye-Ang**2):
  XXX=           -167.4764  YYY=            -11.1516  ZZZ=             55.9740  XYY=            -16.7712
  XXY=             -6.0422  XXZ=            178.6421  XZZ=             73.9634  YZZ=            -71.7278
  YYZ=             -9.0051  XYZ=             80.0729
 Hexadecapole moment (field-independent basis, Debye-Ang**3):
 XXXX=         -22849.7778 YYYY=          -2928.2847 ZZZZ=          -1876.0984 XXXY=            640.7295
 XXXZ=          -1112.2059 YYYX=             80.2218 YYYZ=            -39.5388 ZZZX=             31.5018
 ZZZY=            -45.2825 XXYY=          -4432.5206 XXZZ=          -3100.4368 YYZZ=           -882.8004
 XXYZ=           -154.0605 YYXZ=           -146.4257 ZZXY=           -146.9052
 N-N= 2.131076941241D+03 E-N=-7.207595289549D+03  KE= 1.256032048184D+03
 1|1|UNPC-DESKTOP-BA0GEBV|SP|RB3LYP TD-FC|6-31++G|C21H20O6|MOHAM|16-Dec
 -2023|0||# td b3lyp/6-31++g geom=connectivity||UV_Vis||0,1|O,0,6.89966
 052,-1.80257224,-1.08748418|O,0,-6.81594606,-2.07423006,0.79180392|O,0
 ,7.05979813,-2.19381905,1.52853986|O,0,-7.22010592,-1.78365192,-1.8115
 9078|O,0,0.95043979,2.68840785,-1.79683783|O,0,-0.84673525,2.15012431,
 2.21575818|C,0,3.99566972,0.27646266,0.07613421|C,0,-4.02214027,0.2842
 5629,-0.02826943|C,0,-0.01383116,3.38265416,0.3104814|C,0,4.91667744,-
 0.32964155,-0.81506642|C,0,-4.87955154,-0.55698156,0.72211627|C,0,5.92
 804855,-1.14481692,-0.32829949|C,0,-5.93693264,-1.23838473,0.12583923|
 C,0,4.13424678,0.02855856,1.45883943|C,0,-4.26095897,0.41985398,-1.409
 03745|C,0,2.95056555,1.12276013,-0.48292374|C,0,-2.93697768,0.96394628
 ,0.66700701|C,0,6.05181961,-1.38121948,1.05585675|C,0,-6.15936568,-1.0
 8826711,-1.26163752|C,0,1.00095997,2.61859938,-0.54699339|C,0,-0.98122
 959,2.41767104,0.99873106|C,0,5.1517845,-0.79183406,1.94355248|C,0,-5.
 31842842,-0.26120846,-2.01132635|C,0,1.98746671,1.80981451,0.1790072|C
 ,0,-2.01996067,1.81876385,0.15157956|C,0,6.88778959,-1.64293999,-2.530
 93022|C,0,-6.64228575,-2.26678379,2.22052106|H,0,-0.55456497,4.0676314
 3,-0.34806145|H,0,0.50465608,3.946354,1.09184463|H,0,4.81670459,-0.145
 18067,-1.87863485|H,0,-4.69743152,-0.66354992,1.78478106|H,0,3.4402772
 1,0.47694029,2.16019979|H,0,-3.62378159,1.05222041,-2.0160424|H,0,2.94
 132816,1.21715449,-1.56886395|H,0,-2.85219725,0.76141555,1.73461456|H,
 0,5.26559465,-0.9891053,3.00250915|H,0,-5.49565501,-0.15178239,-3.0780
 846|H,0,1.89946312,1.78837561,1.26090022|H,0,-2.00941596,2.09053508,-0
 .89966779|H,0,7.59267554,-2.52067214,0.77210269|H,0,-7.29330971,-1.617
 71585,-2.77152514|H,0,7.02849698,-0.59233435,-2.80836508|H,0,5.9504742
 3,-2.01752984,-2.95714614|H,0,7.72440411,-2.23772437,-2.89493669|H,0,-
 6.7422631,-1.32004911,2.76452377|H,0,-5.67005739,-2.72094936,2.4457980
 3|H,0,-7.44248446,-2.94568396,2.51145085||Version=IA32W-G09RevD.01|Sta
 te=1-A|HF=-1263.2606965|RMSD=3.125e-009|PG=C01 [X(C21H20O6)]||@


 BULLDOZER: SOMEONE WHO SLEEPS THROUGH SPEECHES.
 Job cpu time:       0 days  0 hours 19 minutes 30.0 seconds.
 File lengths (MBytes):  RWF=    300 Int=      0 D2E=      0 Chk=     26 Scr=      1
 Normal termination of Gaussian 09 at Sat Dec 16 14:20:11 2023.
