21
* (null), Energy   -1000.0000000
O     1.235549    0.760337    0.656101    0.000855   -0.000120   -0.000035
O    -0.849078   -2.822612   -0.340246    0.000125   -0.000144    0.000006
O     1.158060   -1.941075    0.117128    0.000234   -0.000030    0.000035
O     1.893088    0.702685   -1.513453   -0.000044    0.000053   -0.000077
C    -0.106434    0.721833    0.315730   -0.005597    0.005314   -0.000045
C    -0.757918   -0.482103   -0.008020    0.001214    0.000350    0.000275
C    -0.813599    1.916278    0.386413   -0.077678   -0.128346   -0.036951
C    -2.137465   -0.438323   -0.266418   -0.010484   -0.015280   -0.004545
C    -2.180543    1.935514    0.128685    0.043270   -0.065885   -0.002859
C    -2.844823    0.755087   -0.201897    0.034527    0.003831    0.007318
C    -0.026500   -1.775810   -0.062877   -0.000618    0.000195   -0.000079
C     2.176949    0.656102   -0.350436    0.000291   -0.000167    0.000321
C     3.544669    0.490340    0.242635   -0.000029   -0.000084   -0.000121
H    -0.276170    2.820478    0.645055    0.859147    1.457803    0.415363
H    -2.646794   -1.358701   -0.517528    0.110393    0.194489    0.053589
H    -2.723993    2.872193    0.183261   -0.433421    0.736990    0.041839
H    -3.908962    0.764303   -0.406349   -0.375979   -0.002074   -0.073214
H     3.693890    1.178491    1.076349    0.000177    0.000808    0.000983
H     4.297504    0.648797   -0.527257    0.000554    0.000032   -0.000161
H     3.621735   -0.529664    0.628339   -0.000182    0.000311   -0.000181
H    -0.287553   -3.611338   -0.364424    0.000694   -0.000546    0.000054
21
* Frequency(60) 3197.2949
O     1.235646    0.760323    0.656097    0.000855   -0.000120   -0.000035
O    -0.849064   -2.822629   -0.340246    0.000125   -0.000144    0.000006
O     1.158086   -1.941078    0.117132    0.000234   -0.000030    0.000035
O     1.893083    0.702691   -1.513462   -0.000044    0.000053   -0.000077
C    -0.107070    0.722437    0.315725   -0.005597    0.005314   -0.000045
C    -0.757780   -0.482063   -0.007989    0.001214    0.000350    0.000275
C    -0.822427    1.901692    0.382214   -0.077678   -0.128346   -0.036951
C    -2.138656   -0.440059   -0.266934   -0.010484   -0.015280   -0.004545
C    -2.175626    1.928027    0.128360    0.043270   -0.065885   -0.002859
C    -2.840899    0.755523   -0.201066    0.034527    0.003831    0.007318
C    -0.026570   -1.775788   -0.062886   -0.000618    0.000195   -0.000079
C     2.176982    0.656083   -0.350399    0.000291   -0.000167    0.000321
C     3.544666    0.490331    0.242622   -0.000029   -0.000084   -0.000121
H    -0.178532    2.986149    0.692259    0.859147    1.457803    0.415363
H    -2.634249   -1.336598   -0.511438    0.110393    0.194489    0.053589
H    -2.773249    2.955948    0.188016   -0.433421    0.736990    0.041839
H    -3.951690    0.764067   -0.414669   -0.375979   -0.002074   -0.073214
H     3.693911    1.178582    1.076461    0.000177    0.000808    0.000983
H     4.297567    0.648800   -0.527275    0.000554    0.000032   -0.000161
H     3.621715   -0.529629    0.628318   -0.000182    0.000311   -0.000181
H    -0.287474   -3.611400   -0.364418    0.000694   -0.000546    0.000054
21
* Frequency(60) 3197.2949
O     1.235732    0.760311    0.656093    0.000855   -0.000120   -0.000035
O    -0.849052   -2.822643   -0.340245    0.000125   -0.000144    0.000006
O     1.158110   -1.941081    0.117136    0.000234   -0.000030    0.000035
O     1.893079    0.702696   -1.513470   -0.000044    0.000053   -0.000077
C    -0.107637    0.722975    0.315720   -0.005597    0.005314   -0.000045
C    -0.757657   -0.482028   -0.007961    0.001214    0.000350    0.000275
C    -0.830298    1.888687    0.378469   -0.077678   -0.128346   -0.036951
C    -2.139719   -0.441607   -0.267395   -0.010484   -0.015280   -0.004545
C    -2.171242    1.921350    0.128070    0.043270   -0.065885   -0.002859
C    -2.837401    0.755911   -0.200324    0.034527    0.003831    0.007318
C    -0.026633   -1.775768   -0.062894   -0.000618    0.000195   -0.000079
C     2.177012    0.656066   -0.350367    0.000291   -0.000167    0.000321
C     3.544663    0.490322    0.242609   -0.000029   -0.000084   -0.000121
H    -0.091475    3.133868    0.734348    0.859147    1.457803    0.415363
H    -2.623063   -1.316890   -0.506008    0.110393    0.194489    0.053589
H    -2.817168    3.030627    0.192256   -0.433421    0.736990    0.041839
H    -3.989788    0.763857   -0.422088   -0.375979   -0.002074   -0.073214
H     3.693929    1.178664    1.076561    0.000177    0.000808    0.000983
H     4.297624    0.648804   -0.527291    0.000554    0.000032   -0.000161
H     3.621696   -0.529597    0.628300   -0.000182    0.000311   -0.000181
H    -0.287404   -3.611455   -0.364413    0.000694   -0.000546    0.000054
21
* Frequency(60) 3197.2949
O     1.235799    0.760302    0.656091    0.000855   -0.000120   -0.000035
O    -0.849042   -2.822655   -0.340245    0.000125   -0.000144    0.000006
O     1.158128   -1.941084    0.117139    0.000234   -0.000030    0.000035
O     1.893075    0.702700   -1.513476   -0.000044    0.000053   -0.000077
C    -0.108074    0.723390    0.315717   -0.005597    0.005314   -0.000045
C    -0.757563   -0.482001   -0.007940    0.001214    0.000350    0.000275
C    -0.836360    1.878671    0.375586   -0.077678   -0.128346   -0.036951
C    -2.140537   -0.442800   -0.267749   -0.010484   -0.015280   -0.004545
C    -2.167865    1.916209    0.127847    0.043270   -0.065885   -0.002859
C    -2.834706    0.756210   -0.199753    0.034527    0.003831    0.007318
C    -0.026681   -1.775753   -0.062900   -0.000618    0.000195   -0.000079
C     2.177035    0.656053   -0.350342    0.000291   -0.000167    0.000321
C     3.544661    0.490316    0.242600   -0.000029   -0.000084   -0.000121
H    -0.024432    3.247626    0.766760    0.859147    1.457803    0.415363
H    -2.614448   -1.301714   -0.501826    0.110393    0.194489    0.053589
H    -2.850989    3.088137    0.195520   -0.433421    0.736990    0.041839
H    -4.019127    0.763695   -0.427801   -0.375979   -0.002074   -0.073214
H     3.693942    1.178727    1.076637    0.000177    0.000808    0.000983
H     4.297667    0.648806   -0.527304    0.000554    0.000032   -0.000161
H     3.621682   -0.529573    0.628285   -0.000182    0.000311   -0.000181
H    -0.287350   -3.611498   -0.364409    0.000694   -0.000546    0.000054
21
* Frequency(60) 3197.2949
O     1.235839    0.760296    0.656089    0.000855   -0.000120   -0.000035
O    -0.849036   -2.822661   -0.340244    0.000125   -0.000144    0.000006
O     1.158139   -1.941085    0.117140    0.000234   -0.000030    0.000035
O     1.893073    0.702703   -1.513479   -0.000044    0.000053   -0.000077
C    -0.108333    0.723636    0.315714   -0.005597    0.005314   -0.000045
C    -0.757506   -0.481984   -0.007927    0.001214    0.000350    0.000275
C    -0.839955    1.872731    0.373876   -0.077678   -0.128346   -0.036951
C    -2.141022   -0.443507   -0.267960   -0.010484   -0.015280   -0.004545
C    -2.165863    1.913160    0.127714    0.043270   -0.065885   -0.002859
C    -2.833108    0.756387   -0.199414    0.034527    0.003831    0.007318
C    -0.026710   -1.775744   -0.062904   -0.000618    0.000195   -0.000079
C     2.177048    0.656045   -0.350327    0.000291   -0.000167    0.000321
C     3.544659    0.490312    0.242594   -0.000029   -0.000084   -0.000121
H     0.015330    3.315096    0.785984    0.859147    1.457803    0.415363
H    -2.609339   -1.292712   -0.499346    0.110393    0.194489    0.053589
H    -2.871049    3.122246    0.197457   -0.433421    0.736990    0.041839
H    -4.036528    0.763599   -0.431190   -0.375979   -0.002074   -0.073214
H     3.693951    1.178765    1.076683    0.000177    0.000808    0.000983
H     4.297693    0.648808   -0.527311    0.000554    0.000032   -0.000161
H     3.621674   -0.529558    0.628277   -0.000182    0.000311   -0.000181
H    -0.287318   -3.611523   -0.364406    0.000694   -0.000546    0.000054
21
* Frequency(60) 3197.2949
O     1.235847    0.760295    0.656089    0.000855   -0.000120   -0.000035
O    -0.849035   -2.822663   -0.340244    0.000125   -0.000144    0.000006
O     1.158141   -1.941085    0.117141    0.000234   -0.000030    0.000035
O     1.893073    0.702703   -1.513480   -0.000044    0.000053   -0.000077
C    -0.108387    0.723686    0.315714   -0.005597    0.005314   -0.000045
C    -0.757495   -0.481981   -0.007925    0.001214    0.000350    0.000275
C    -0.840694    1.871510    0.373524   -0.077678   -0.128346   -0.036951
C    -2.141122   -0.443652   -0.268003   -0.010484   -0.015280   -0.004545
C    -2.165451    1.912533    0.127687    0.043270   -0.065885   -0.002859
C    -2.832780    0.756423   -0.199345    0.034527    0.003831    0.007318
C    -0.026716   -1.775742   -0.062905   -0.000618    0.000195   -0.000079
C     2.177051    0.656043   -0.350324    0.000291   -0.000167    0.000321
C     3.544659    0.490311    0.242593   -0.000029   -0.000084   -0.000121
H     0.023505    3.328966    0.789936    0.859147    1.457803    0.415363
H    -2.608289   -1.290862   -0.498836    0.110393    0.194489    0.053589
H    -2.875172    3.129258    0.197855   -0.433421    0.736990    0.041839
H    -4.040105    0.763580   -0.431886   -0.375979   -0.002074   -0.073214
H     3.693952    1.178772    1.076692    0.000177    0.000808    0.000983
H     4.297698    0.648808   -0.527313    0.000554    0.000032   -0.000161
H     3.621672   -0.529556    0.628275   -0.000182    0.000311   -0.000181
H    -0.287311   -3.611528   -0.364406    0.000694   -0.000546    0.000054
21
* Frequency(60) 3197.2949
O     1.235823    0.760298    0.656090    0.000855   -0.000120   -0.000035
O    -0.849038   -2.822659   -0.340244    0.000125   -0.000144    0.000006
O     1.158135   -1.941085    0.117140    0.000234   -0.000030    0.000035
O     1.893074    0.702702   -1.513478   -0.000044    0.000053   -0.000077
C    -0.108228    0.723536    0.315715   -0.005597    0.005314   -0.000045
C    -0.757529   -0.481991   -0.007932    0.001214    0.000350    0.000275
C    -0.838497    1.875140    0.374569   -0.077678   -0.128346   -0.036951
C    -2.140825   -0.443220   -0.267875   -0.010484   -0.015280   -0.004545
C    -2.166675    1.914397    0.127768    0.043270   -0.065885   -0.002859
C    -2.833756    0.756315   -0.199552    0.034527    0.003831    0.007318
C    -0.026698   -1.775748   -0.062902   -0.000618    0.000195   -0.000079
C     2.177043    0.656048   -0.350333    0.000291   -0.000167    0.000321
C     3.544660    0.490314    0.242597   -0.000029   -0.000084   -0.000121
H    -0.000795    3.287733    0.778188    0.859147    1.457803    0.415363
H    -2.611411   -1.296363   -0.500352    0.110393    0.194489    0.053589
H    -2.862914    3.108413    0.196672   -0.433421    0.736990    0.041839
H    -4.029471    0.763638   -0.429815   -0.375979   -0.002074   -0.073214
H     3.693947    1.178750    1.076664    0.000177    0.000808    0.000983
H     4.297682    0.648807   -0.527308    0.000554    0.000032   -0.000161
H     3.621677   -0.529564    0.628280   -0.000182    0.000311   -0.000181
H    -0.287331   -3.611513   -0.364407    0.000694   -0.000546    0.000054
21
* Frequency(60) 3197.2949
O     1.235769    0.760306    0.656092    0.000855   -0.000120   -0.000035
O    -0.849046   -2.822650   -0.340245    0.000125   -0.000144    0.000006
O     1.158120   -1.941083    0.117137    0.000234   -0.000030    0.000035
O     1.893077    0.702698   -1.513473   -0.000044    0.000053   -0.000077
C    -0.107875    0.723201    0.315718   -0.005597    0.005314   -0.000045
C    -0.757606   -0.482013   -0.007950    0.001214    0.000350    0.000275
C    -0.833602    1.883228    0.376898   -0.077678   -0.128346   -0.036951
C    -2.140164   -0.442257   -0.267588   -0.010484   -0.015280   -0.004545
C    -2.169401    1.918548    0.127948    0.043270   -0.065885   -0.002859
C    -2.835932    0.756074   -0.200013    0.034527    0.003831    0.007318
C    -0.026659   -1.775760   -0.062897   -0.000618    0.000195   -0.000079
C     2.177024    0.656059   -0.350353    0.000291   -0.000167    0.000321
C     3.544662    0.490319    0.242604   -0.000029   -0.000084   -0.000121
H    -0.054936    3.195867    0.752013    0.859147    1.457803    0.415363
H    -2.618368   -1.308619   -0.503729    0.110393    0.194489    0.053589
H    -2.835601    3.061970    0.194035   -0.433421    0.736990    0.041839
H    -4.005778    0.763769   -0.425202   -0.375979   -0.002074   -0.073214
H     3.693936    1.178699    1.076602    0.000177    0.000808    0.000983
H     4.297647    0.648805   -0.527298    0.000554    0.000032   -0.000161
H     3.621688   -0.529584    0.628292   -0.000182    0.000311   -0.000181
H    -0.287375   -3.611478   -0.364410    0.000694   -0.000546    0.000054
21
* Frequency(60) 3197.2949
O     1.235691    0.760317    0.656095    0.000855   -0.000120   -0.000035
O    -0.849058   -2.822636   -0.340245    0.000125   -0.000144    0.000006
O     1.158099   -1.941080    0.117134    0.000234   -0.000030    0.000035
O     1.893081    0.702694   -1.513466   -0.000044    0.000053   -0.000077
C    -0.107367    0.722718    0.315722   -0.005597    0.005314   -0.000045
C    -0.757716   -0.482045   -0.007975    0.001214    0.000350    0.000275
C    -0.826539    1.894898    0.380257   -0.077678   -0.128346   -0.036951
C    -2.139211   -0.440868   -0.267175   -0.010484   -0.015280   -0.004545
C    -2.173336    1.924539    0.128208    0.043270   -0.065885   -0.002859
C    -2.839071    0.755725   -0.200678    0.034527    0.003831    0.007318
C    -0.026603   -1.775778   -0.062890   -0.000618    0.000195   -0.000079
C     2.176998    0.656074   -0.350382    0.000291   -0.000167    0.000321
C     3.544664    0.490326    0.242615   -0.000029   -0.000084   -0.000121
H    -0.133052    3.063321    0.714247    0.859147    1.457803    0.415363
H    -2.628405   -1.326302   -0.508601    0.110393    0.194489    0.053589
H    -2.796193    2.994962    0.190231   -0.433421    0.736990    0.041839
H    -3.971593    0.763957   -0.418545   -0.375979   -0.002074   -0.073214
H     3.693920    1.178625    1.076513    0.000177    0.000808    0.000983
H     4.297597    0.648802   -0.527283    0.000554    0.000032   -0.000161
H     3.621705   -0.529612    0.628308   -0.000182    0.000311   -0.000181
H    -0.287438   -3.611429   -0.364415    0.000694   -0.000546    0.000054
21
* Frequency(60) 3197.2949
O     1.235598    0.760330    0.656099    0.000855   -0.000120   -0.000035
O    -0.849071   -2.822621   -0.340246    0.000125   -0.000144    0.000006
O     1.158073   -1.941077    0.117130    0.000234   -0.000030    0.000035
O     1.893085    0.702688   -1.513458   -0.000044    0.000053   -0.000077
C    -0.106757    0.722139    0.315727   -0.005597    0.005314   -0.000045
C    -0.757848   -0.482083   -0.008005    0.001214    0.000350    0.000275
C    -0.818074    1.908884    0.384284   -0.077678   -0.128346   -0.036951
C    -2.138069   -0.439203   -0.266679   -0.010484   -0.015280   -0.004545
C    -2.178051    1.931719    0.128520    0.043270   -0.065885   -0.002859
C    -2.842834    0.755308   -0.201476    0.034527    0.003831    0.007318
C    -0.026536   -1.775799   -0.062882   -0.000618    0.000195   -0.000079
C     2.176966    0.656092   -0.350417    0.000291   -0.000167    0.000321
C     3.544667    0.490336    0.242628   -0.000029   -0.000084   -0.000121
H    -0.226676    2.904459    0.668984    0.859147    1.457803    0.415363
H    -2.640435   -1.347497   -0.514441    0.110393    0.194489    0.053589
H    -2.748962    2.914649    0.185671   -0.433421    0.736990    0.041839
H    -3.930622    0.764183   -0.410567   -0.375979   -0.002074   -0.073214
H     3.693901    1.178537    1.076406    0.000177    0.000808    0.000983
H     4.297536    0.648799   -0.527266    0.000554    0.000032   -0.000161
H     3.621725   -0.529646    0.628328   -0.000182    0.000311   -0.000181
H    -0.287513   -3.611369   -0.364421    0.000694   -0.000546    0.000054
21
* Frequency(60) 3197.2949
O     1.235499    0.760344    0.656103    0.000855   -0.000120   -0.000035
O    -0.849086   -2.822604   -0.340247    0.000125   -0.000144    0.000006
O     1.158046   -1.941073    0.117126    0.000234   -0.000030    0.000035
O     1.893090    0.702682   -1.513449   -0.000044    0.000053   -0.000077
C    -0.106112    0.721526    0.315732   -0.005597    0.005314   -0.000045
C    -0.757988   -0.482123   -0.008036    0.001214    0.000350    0.000275
C    -0.809125    1.923672    0.388542   -0.077678   -0.128346   -0.036951
C    -2.136861   -0.437442   -0.266156   -0.010484   -0.015280   -0.004545
C    -2.183036    1.939310    0.128849    0.043270   -0.065885   -0.002859
C    -2.846812    0.754867   -0.202319    0.034527    0.003831    0.007318
C    -0.026465   -1.775822   -0.062873   -0.000618    0.000195   -0.000079
C     2.176932    0.656111   -0.350454    0.000291   -0.000167    0.000321
C     3.544671    0.490345    0.242642   -0.000029   -0.000084   -0.000121
H    -0.325663    2.736496    0.621127    0.859147    1.457803    0.415363
H    -2.653154   -1.369905   -0.520615    0.110393    0.194489    0.053589
H    -2.699025    2.829736    0.180851   -0.433421    0.736990    0.041839
H    -3.887303    0.764422   -0.402131   -0.375979   -0.002074   -0.073214
H     3.693880    1.178444    1.076293    0.000177    0.000808    0.000983
H     4.297472    0.648795   -0.527247    0.000554    0.000032   -0.000161
H     3.621746   -0.529682    0.628349   -0.000182    0.000311   -0.000181
H    -0.287593   -3.611306   -0.364427    0.000694   -0.000546    0.000054
21
* Frequency(60) 3197.2949
O     1.235406    0.760357    0.656107    0.000855   -0.000120   -0.000035
O    -0.849099   -2.822588   -0.340248    0.000125   -0.000144    0.000006
O     1.158021   -1.941070    0.117122    0.000234   -0.000030    0.000035
O     1.893095    0.702676   -1.513440   -0.000044    0.000053   -0.000077
C    -0.105502    0.720947    0.315737   -0.005597    0.005314   -0.000045
C    -0.758121   -0.482161   -0.008066    0.001214    0.000350    0.000275
C    -0.800660    1.937658    0.392568   -0.077678   -0.128346   -0.036951
C    -2.135718   -0.435777   -0.265660   -0.010484   -0.015280   -0.004545
C    -2.187751    1.946489    0.129161    0.043270   -0.065885   -0.002859
C    -2.850575    0.754449   -0.203116    0.034527    0.003831    0.007318
C    -0.026397   -1.775843   -0.062864   -0.000618    0.000195   -0.000079
C     2.176901    0.656129   -0.350489    0.000291   -0.000167    0.000321
C     3.544674    0.490354    0.242655   -0.000029   -0.000084   -0.000121
H    -0.419288    2.577634    0.575864    0.859147    1.457803    0.415363
H    -2.665184   -1.391099   -0.526455    0.110393    0.194489    0.053589
H    -2.651793    2.749424    0.176291   -0.433421    0.736990    0.041839
H    -3.846331    0.764648   -0.394153   -0.375979   -0.002074   -0.073214
H     3.693861    1.178356    1.076186    0.000177    0.000808    0.000983
H     4.297412    0.648791   -0.527230    0.000554    0.000032   -0.000161
H     3.621766   -0.529716    0.628369   -0.000182    0.000311   -0.000181
H    -0.287669   -3.611247   -0.364433    0.000694   -0.000546    0.000054
21
* Frequency(60) 3197.2949
O     1.235329    0.760368    0.656110    0.000855   -0.000120   -0.000035
O    -0.849111   -2.822575   -0.340248    0.000125   -0.000144    0.000006
O     1.157999   -1.941067    0.117119    0.000234   -0.000030    0.000035
O     1.893099    0.702671   -1.513433   -0.000044    0.000053   -0.000077
C    -0.104993    0.720464    0.315741   -0.005597    0.005314   -0.000045
C    -0.758231   -0.482193   -0.008091    0.001214    0.000350    0.000275
C    -0.793597    1.949328    0.395928   -0.077678   -0.128346   -0.036951
C    -2.134765   -0.434388   -0.265247   -0.010484   -0.015280   -0.004545
C    -2.191686    1.952480    0.129421    0.043270   -0.065885   -0.002859
C    -2.853714    0.754101   -0.203782    0.034527    0.003831    0.007318
C    -0.026341   -1.775861   -0.062857   -0.000618    0.000195   -0.000079
C     2.176874    0.656144   -0.350519    0.000291   -0.000167    0.000321
C     3.544676    0.490362    0.242666   -0.000029   -0.000084   -0.000121
H    -0.497403    2.445088    0.538098    0.859147    1.457803    0.415363
H    -2.675221   -1.408782   -0.531328    0.110393    0.194489    0.053589
H    -2.612386    2.682415    0.172487   -0.433421    0.736990    0.041839
H    -3.812147    0.764837   -0.387496   -0.375979   -0.002074   -0.073214
H     3.693845    1.178283    1.076096    0.000177    0.000808    0.000983
H     4.297362    0.648788   -0.527215    0.000554    0.000032   -0.000161
H     3.621782   -0.529744    0.628385   -0.000182    0.000311   -0.000181
H    -0.287732   -3.611197   -0.364438    0.000694   -0.000546    0.000054
21
* Frequency(60) 3197.2949
O     1.235275    0.760376    0.656112    0.000855   -0.000120   -0.000035
O    -0.849119   -2.822566   -0.340249    0.000125   -0.000144    0.000006
O     1.157985   -1.941066    0.117117    0.000234   -0.000030    0.000035
O     1.893102    0.702668   -1.513429   -0.000044    0.000053   -0.000077
C    -0.104640    0.720129    0.315744   -0.005597    0.005314   -0.000045
C    -0.758308   -0.482215   -0.008108    0.001214    0.000350    0.000275
C    -0.788702    1.957416    0.398257   -0.077678   -0.128346   -0.036951
C    -2.134105   -0.433425   -0.264961   -0.010484   -0.015280   -0.004545
C    -2.194412    1.956631    0.129601    0.043270   -0.065885   -0.002859
C    -2.855890    0.753859   -0.204243    0.034527    0.003831    0.007318
C    -0.026302   -1.775873   -0.062852   -0.000618    0.000195   -0.000079
C     2.176856    0.656155   -0.350539    0.000291   -0.000167    0.000321
C     3.544678    0.490367    0.242674   -0.000029   -0.000084   -0.000121
H    -0.551544    2.353222    0.511923    0.859147    1.457803    0.415363
H    -2.682178   -1.421039   -0.534705    0.110393    0.194489    0.053589
H    -2.585073    2.635972    0.169851   -0.433421    0.736990    0.041839
H    -3.788453    0.764968   -0.382883   -0.375979   -0.002074   -0.073214
H     3.693834    1.178232    1.076034    0.000177    0.000808    0.000983
H     4.297327    0.648786   -0.527205    0.000554    0.000032   -0.000161
H     3.621794   -0.529764    0.628397   -0.000182    0.000311   -0.000181
H    -0.287776   -3.611163   -0.364441    0.000694   -0.000546    0.000054
21
* Frequency(60) 3197.2949
O     1.235251    0.760379    0.656113    0.000855   -0.000120   -0.000035
O    -0.849122   -2.822562   -0.340249    0.000125   -0.000144    0.000006
O     1.157978   -1.941065    0.117116    0.000234   -0.000030    0.000035
O     1.893103    0.702666   -1.513426   -0.000044    0.000053   -0.000077
C    -0.104482    0.719979    0.315745   -0.005597    0.005314   -0.000045
C    -0.758342   -0.482225   -0.008116    0.001214    0.000350    0.000275
C    -0.786505    1.961046    0.399302   -0.077678   -0.128346   -0.036951
C    -2.133808   -0.432993   -0.264832   -0.010484   -0.015280   -0.004545
C    -2.195636    1.958495    0.129682    0.043270   -0.065885   -0.002859
C    -2.856866    0.753751   -0.204450    0.034527    0.003831    0.007318
C    -0.026285   -1.775879   -0.062849   -0.000618    0.000195   -0.000079
C     2.176848    0.656160   -0.350548    0.000291   -0.000167    0.000321
C     3.544679    0.490370    0.242677   -0.000029   -0.000084   -0.000121
H    -0.575844    2.311989    0.500175    0.859147    1.457803    0.415363
H    -2.685300   -1.426540   -0.536220    0.110393    0.194489    0.053589
H    -2.572814    2.615127    0.168667   -0.433421    0.736990    0.041839
H    -3.777819    0.765026   -0.380812   -0.375979   -0.002074   -0.073214
H     3.693829    1.178209    1.076006    0.000177    0.000808    0.000983
H     4.297311    0.648785   -0.527200    0.000554    0.000032   -0.000161
H     3.621799   -0.529773    0.628402   -0.000182    0.000311   -0.000181
H    -0.287795   -3.611147   -0.364443    0.000694   -0.000546    0.000054
21
* Frequency(60) 3197.2949
O     1.235259    0.760378    0.656113    0.000855   -0.000120   -0.000035
O    -0.849121   -2.822563   -0.340249    0.000125   -0.000144    0.000006
O     1.157980   -1.941065    0.117116    0.000234   -0.000030    0.000035
O     1.893103    0.702667   -1.513427   -0.000044    0.000053   -0.000077
C    -0.104535    0.720030    0.315745   -0.005597    0.005314   -0.000045
C    -0.758330   -0.482222   -0.008114    0.001214    0.000350    0.000275
C    -0.787244    1.959825    0.398950   -0.077678   -0.128346   -0.036951
C    -2.133908   -0.433138   -0.264875   -0.010484   -0.015280   -0.004545
C    -2.195224    1.957868    0.129655    0.043270   -0.065885   -0.002859
C    -2.856538    0.753788   -0.204380    0.034527    0.003831    0.007318
C    -0.026291   -1.775877   -0.062850   -0.000618    0.000195   -0.000079
C     2.176850    0.656158   -0.350545    0.000291   -0.000167    0.000321
C     3.544679    0.490369    0.242676   -0.000029   -0.000084   -0.000121
H    -0.567670    2.325860    0.504127    0.859147    1.457803    0.415363
H    -2.684250   -1.424689   -0.535710    0.110393    0.194489    0.053589
H    -2.576938    2.622139    0.169065   -0.433421    0.736990    0.041839
H    -3.781396    0.765007   -0.381508   -0.375979   -0.002074   -0.073214
H     3.693830    1.178217    1.076016    0.000177    0.000808    0.000983
H     4.297316    0.648786   -0.527202    0.000554    0.000032   -0.000161
H     3.621797   -0.529770    0.628400   -0.000182    0.000311   -0.000181
H    -0.287789   -3.611152   -0.364442    0.000694   -0.000546    0.000054
21
* Frequency(60) 3197.2949
O     1.235298    0.760372    0.656111    0.000855   -0.000120   -0.000035
O    -0.849115   -2.822570   -0.340248    0.000125   -0.000144    0.000006
O     1.157991   -1.941066    0.117118    0.000234   -0.000030    0.000035
O     1.893101    0.702669   -1.513431   -0.000044    0.000053   -0.000077
C    -0.104794    0.720275    0.315743   -0.005597    0.005314   -0.000045
C    -0.758274   -0.482206   -0.008101    0.001214    0.000350    0.000275
C    -0.790839    1.953884    0.397240   -0.077678   -0.128346   -0.036951
C    -2.134393   -0.433845   -0.265086   -0.010484   -0.015280   -0.004545
C    -2.193222    1.954819    0.129522    0.043270   -0.065885   -0.002859
C    -2.854940    0.753965   -0.204041    0.034527    0.003831    0.007318
C    -0.026319   -1.775868   -0.062854   -0.000618    0.000195   -0.000079
C     2.176864    0.656150   -0.350530    0.000291   -0.000167    0.000321
C     3.544677    0.490365    0.242671   -0.000029   -0.000084   -0.000121
H    -0.527907    2.393329    0.523350    0.859147    1.457803    0.415363
H    -2.679140   -1.415688   -0.533230    0.110393    0.194489    0.053589
H    -2.596997    2.656248    0.171002   -0.433421    0.736990    0.041839
H    -3.798797    0.764911   -0.384897   -0.375979   -0.002074   -0.073214
H     3.693839    1.178254    1.076061    0.000177    0.000808    0.000983
H     4.297342    0.648787   -0.527209    0.000554    0.000032   -0.000161
H     3.621789   -0.529755    0.628392   -0.000182    0.000311   -0.000181
H    -0.287757   -3.611178   -0.364440    0.000694   -0.000546    0.000054
21
* Frequency(60) 3197.2949
O     1.235365    0.760363    0.656108    0.000855   -0.000120   -0.000035
O    -0.849105   -2.822581   -0.340248    0.000125   -0.000144    0.000006
O     1.158009   -1.941069    0.117121    0.000234   -0.000030    0.000035
O     1.893097    0.702673   -1.513437   -0.000044    0.000053   -0.000077
C    -0.105231    0.720690    0.315739   -0.005597    0.005314   -0.000045
C    -0.758179   -0.482178   -0.008079    0.001214    0.000350    0.000275
C    -0.796901    1.943869    0.394357   -0.077678   -0.128346   -0.036951
C    -2.135211   -0.435038   -0.265440   -0.010484   -0.015280   -0.004545
C    -2.189845    1.949678    0.129299    0.043270   -0.065885   -0.002859
C    -2.852245    0.754264   -0.203470    0.034527    0.003831    0.007318
C    -0.026367   -1.775852   -0.062860   -0.000618    0.000195   -0.000079
C     2.176887    0.656137   -0.350505    0.000291   -0.000167    0.000321
C     3.544675    0.490358    0.242661   -0.000029   -0.000084   -0.000121
H    -0.460864    2.507087    0.555763    0.859147    1.457803    0.415363
H    -2.670526   -1.400511   -0.529048    0.110393    0.194489    0.053589
H    -2.630819    2.713759    0.174267   -0.433421    0.736990    0.041839
H    -3.828137    0.764749   -0.390610   -0.375979   -0.002074   -0.073214
H     3.693852    1.178317    1.076138    0.000177    0.000808    0.000983
H     4.297385    0.648790   -0.527222    0.000554    0.000032   -0.000161
H     3.621774   -0.529731    0.628378   -0.000182    0.000311   -0.000181
H    -0.287702   -3.611220   -0.364436    0.000694   -0.000546    0.000054
21
* Frequency(60) 3197.2949
O     1.235452    0.760351    0.656105    0.000855   -0.000120   -0.000035
O    -0.849093   -2.822596   -0.340247    0.000125   -0.000144    0.000006
O     1.158033   -1.941072    0.117124    0.000234   -0.000030    0.000035
O     1.893093    0.702679   -1.513445   -0.000044    0.000053   -0.000077
C    -0.105798    0.721229    0.315735   -0.005597    0.005314   -0.000045
C    -0.758056   -0.482143   -0.008052    0.001214    0.000350    0.000275
C    -0.804772    1.930864    0.390612   -0.077678   -0.128346   -0.036951
C    -2.136273   -0.436586   -0.265901   -0.010484   -0.015280   -0.004545
C    -2.185461    1.943002    0.129009    0.043270   -0.065885   -0.002859
C    -2.848747    0.754652   -0.202729    0.034527    0.003831    0.007318
C    -0.026430   -1.775833   -0.062868   -0.000618    0.000195   -0.000079
C     2.176916    0.656120   -0.350472    0.000291   -0.000167    0.000321
C     3.544672    0.490350    0.242649   -0.000029   -0.000084   -0.000121
H    -0.373807    2.654806    0.597852    0.859147    1.457803    0.415363