 Entering Link 1 = C:\G09W\l1.exe PID=     11120.
  
 Copyright (c) 1988,1990,1992,1993,1995,1998,2003,2009,2013,
            Gaussian, Inc.  All Rights Reserved.
  
 This is part of the Gaussian(R) 09 program.  It is based on
 the Gaussian(R) 03 system (copyright 2003, Gaussian, Inc.),
 the Gaussian(R) 98 system (copyright 1998, Gaussian, Inc.),
 the Gaussian(R) 94 system (copyright 1995, Gaussian, Inc.),
 the Gaussian 92(TM) system (copyright 1992, Gaussian, Inc.),
 the Gaussian 90(TM) system (copyright 1990, Gaussian, Inc.),
 the Gaussian 88(TM) system (copyright 1988, Gaussian, Inc.),
 the Gaussian 86(TM) system (copyright 1986, Carnegie Mellon
 University), and the Gaussian 82(TM) system (copyright 1983,
 Carnegie Mellon University). Gaussian is a federally registered
 trademark of Gaussian, Inc.
  
 This software contains proprietary and confidential information,
 including trade secrets, belonging to Gaussian, Inc.
  
 This software is provided under written license and may be
 used, copied, transmitted, or stored only in accord with that
 written license.
  
 The following legend is applicable only to US Government
 contracts under FAR:
  
                    RESTRICTED RIGHTS LEGEND
  
 Use, reproduction and disclosure by the US Government is
 subject to restrictions as set forth in subparagraphs (a)
 and (c) of the Commercial Computer Software - Restricted
 Rights clause in FAR 52.227-19.
  
 Gaussian, Inc.
 340 Quinnipiac St., Bldg. 40, Wallingford CT 06492
  
  
 ---------------------------------------------------------------
 Warning -- This program may not be used in any manner that
 competes with the business of Gaussian, Inc. or will provide
 assistance to any competitor of Gaussian, Inc.  The licensee
 of this program is prohibited from giving any competitor of
 Gaussian, Inc. access to this program.  By using this program,
 the user acknowledges that Gaussian, Inc. is engaged in the
 business of creating and licensing software in the field of
 computational chemistry and represents and warrants to the
 licensee that it is not a competitor of Gaussian, Inc. and that
 it will not use this program in any manner prohibited above.
 ---------------------------------------------------------------
  

 Cite this work as:
 Gaussian 09, Revision D.01,
 M. J. Frisch, G. W. Trucks, H. B. Schlegel, G. E. Scuseria, 
 M. A. Robb, J. R. Cheeseman, G. Scalmani, V. Barone, B. Mennucci, 
 G. A. Petersson, H. Nakatsuji, M. Caricato, X. Li, H. P. Hratchian, 
 A. F. Izmaylov, J. Bloino, G. Zheng, J. L. Sonnenberg, M. Hada, 
 M. Ehara, K. Toyota, R. Fukuda, J. Hasegawa, M. Ishida, T. Nakajima, 
 Y. Honda, O. Kitao, H. Nakai, T. Vreven, J. A. Montgomery, Jr., 
 J. E. Peralta, F. Ogliaro, M. Bearpark, J. J. Heyd, E. Brothers, 
 K. N. Kudin, V. N. Staroverov, T. Keith, R. Kobayashi, J. Normand, 
 K. Raghavachari, A. Rendell, J. C. Burant, S. S. Iyengar, J. Tomasi, 
 M. Cossi, N. Rega, J. M. Millam, M. Klene, J. E. Knox, J. B. Cross, 
 V. Bakken, C. Adamo, J. Jaramillo, R. Gomperts, R. E. Stratmann, 
 O. Yazyev, A. J. Austin, R. Cammi, C. Pomelli, J. W. Ochterski, 
 R. L. Martin, K. Morokuma, V. G. Zakrzewski, G. A. Voth, 
 P. Salvador, J. J. Dannenberg, S. Dapprich, A. D. Daniels, 
 O. Farkas, J. B. Foresman, J. V. Ortiz, J. Cioslowski, 
 and D. J. Fox, Gaussian, Inc., Wallingford CT, 2013.
 
 ******************************************
 Gaussian 09:  IA32W-G09RevD.01 24-Apr-2013
                09-Dec-2023 
 ******************************************
 %chk=D:\DFT\Ascorbic Acid_freq.chk
 -----------------------
 #p opt freq b3lyp/6-31g
 -----------------------
 1/14=-1,18=20,19=15,26=3,38=1/1,3;
 2/9=110,12=2,17=6,18=5,40=1/2;
 3/5=1,6=6,11=2,16=1,25=1,30=1,71=1,74=-5/1,2,3;
 4//1;
 5/5=2,38=5/2;
 6/7=2,8=2,9=2,10=2,28=1/1;
 7//1,2,3,16;
 1/14=-1,18=20,19=15,26=3/3(2);
 2/9=110/2;
 99//99;
 2/9=110/2;
 3/5=1,6=6,11=2,16=1,25=1,30=1,71=1,74=-5/1,2,3;
 4/5=5,16=3,69=1/1;
 5/5=2,38=5/2;
 7//1,2,3,16;
 1/14=-1,18=20,19=15,26=3/3(-5);
 2/9=110/2;
 6/7=2,8=2,9=2,10=2,19=2,28=1/1;
 99/9=1/99;
 Leave Link    1 at Sat Dec 09 23:42:41 2023, MaxMem=           0 cpu:         0.0
 (Enter C:\G09W\l101.exe)
 --------
 54670067
 --------
 Symbolic Z-matrix:
 Charge =  0 Multiplicity = 1
 O                     0.0932   -1.1066    0.6445 
 O                    -1.3436    0.0892   -1.3863 
 O                     0.8392    2.3901    0.2844 
 O                    -3.8929   -0.204    -0.3326 
 O                     3.022     0.5695   -0.6056 
 O                     1.9915   -2.156    -0.1376 
 C                    -0.3397    0.2618    0.7853 
 C                    -1.6059    0.4585   -0.033 
 C                     0.8212    1.0265    0.2887 
 C                    -2.7464   -0.4082    0.4863 
 C                     1.8077    0.2273   -0.1049 
 C                     1.3536   -1.1481    0.1108 
 H                    -0.5154    0.4609    1.8484 
 H                    -1.9162    1.5092   -0.0432 
 H                    -2.4989   -1.4735    0.4351 
 H                    -3.0013   -0.1462    1.5179 
 H                    -1.0999   -0.8522   -1.3986 
 H                     0.0039    2.6957    0.678 
 H                    -4.6023   -0.7644    0.0257 
 H                     3.5024   -0.2572   -0.7856 
 
 NAtoms=     20 NQM=       20 NQMF=       0 NMMI=      0 NMMIF=      0
                NMic=       0 NMicF=      0.
                    Isotopes and Nuclear Properties:
 (Nuclear quadrupole moments (NQMom) in fm**2, nuclear magnetic moments (NMagM)
  in nuclear magnetons)

  Atom         1           2           3           4           5           6           7           8           9          10
 IAtWgt=          16          16          16          16          16          16          12          12          12          12
 AtmWgt=  15.9949146  15.9949146  15.9949146  15.9949146  15.9949146  15.9949146  12.0000000  12.0000000  12.0000000  12.0000000
 NucSpn=           0           0           0           0           0           0           0           0           0           0
 AtZEff=   0.0000000   0.0000000   0.0000000   0.0000000   0.0000000   0.0000000   0.0000000   0.0000000   0.0000000   0.0000000
 NQMom=    0.0000000   0.0000000   0.0000000   0.0000000   0.0000000   0.0000000   0.0000000   0.0000000   0.0000000   0.0000000
 NMagM=    0.0000000   0.0000000   0.0000000   0.0000000   0.0000000   0.0000000   0.0000000   0.0000000   0.0000000   0.0000000
 AtZNuc=   8.0000000   8.0000000   8.0000000   8.0000000   8.0000000   8.0000000   6.0000000   6.0000000   6.0000000   6.0000000

  Atom        11          12          13          14          15          16          17          18          19          20
 IAtWgt=          12          12           1           1           1           1           1           1           1           1
 AtmWgt=  12.0000000  12.0000000   1.0078250   1.0078250   1.0078250   1.0078250   1.0078250   1.0078250   1.0078250   1.0078250
 NucSpn=           0           0           1           1           1           1           1           1           1           1
 AtZEff=   0.0000000   0.0000000   0.0000000   0.0000000   0.0000000   0.0000000   0.0000000   0.0000000   0.0000000   0.0000000
 NQMom=    0.0000000   0.0000000   0.0000000   0.0000000   0.0000000   0.0000000   0.0000000   0.0000000   0.0000000   0.0000000
 NMagM=    0.0000000   0.0000000   2.7928460   2.7928460   2.7928460   2.7928460   2.7928460   2.7928460   2.7928460   2.7928460
 AtZNuc=   6.0000000   6.0000000   1.0000000   1.0000000   1.0000000   1.0000000   1.0000000   1.0000000   1.0000000   1.0000000
 Leave Link  101 at Sat Dec 09 23:42:41 2023, MaxMem=    33554432 cpu:         0.0
 (Enter C:\G09W\l103.exe)

 GradGradGradGradGradGradGradGradGradGradGradGradGradGradGradGradGradGrad
 Berny optimization.
 Initialization pass.
                           ----------------------------
                           !    Initial Parameters    !
                           ! (Angstroms and Degrees)  !
 --------------------------                            --------------------------
 ! Name  Definition              Value          Derivative Info.                !
 --------------------------------------------------------------------------------
 ! R1    R(1,7)                  1.4421         estimate D2E/DX2                !
 ! R2    R(1,12)                 1.3694         estimate D2E/DX2                !
 ! R3    R(2,8)                  1.4271         estimate D2E/DX2                !
 ! R4    R(2,17)                 0.9725         estimate D2E/DX2                !
 ! R5    R(3,9)                  1.3637         estimate D2E/DX2                !
 ! R6    R(3,18)                 0.9726         estimate D2E/DX2                !
 ! R7    R(4,10)                 1.4236         estimate D2E/DX2                !
 ! R8    R(4,19)                 0.9725         estimate D2E/DX2                !
 ! R9    R(5,11)                 1.3573         estimate D2E/DX2                !
 ! R10   R(5,20)                 0.9729         estimate D2E/DX2                !
 ! R11   R(6,12)                 1.2184         estimate D2E/DX2                !
 ! R12   R(7,8)                  1.5204         estimate D2E/DX2                !
 ! R13   R(7,9)                  1.4762         estimate D2E/DX2                !
 ! R14   R(7,13)                 1.0958         estimate D2E/DX2                !
 ! R15   R(8,10)                 1.5237         estimate D2E/DX2                !
 ! R16   R(8,14)                 1.0956         estimate D2E/DX2                !
 ! R17   R(9,11)                 1.3292         estimate D2E/DX2                !
 ! R18   R(10,15)                1.0949         estimate D2E/DX2                !
 ! R19   R(10,16)                1.0944         estimate D2E/DX2                !
 ! R20   R(11,12)                1.4644         estimate D2E/DX2                !
 ! A1    A(7,1,12)             110.066          estimate D2E/DX2                !
 ! A2    A(8,2,17)             107.9719         estimate D2E/DX2                !
 ! A3    A(9,3,18)             107.551          estimate D2E/DX2                !
 ! A4    A(10,4,19)            107.0308         estimate D2E/DX2                !
 ! A5    A(11,5,20)            107.2031         estimate D2E/DX2                !
 ! A6    A(1,7,8)              108.6755         estimate D2E/DX2                !
 ! A7    A(1,7,9)              102.8635         estimate D2E/DX2                !
 ! A8    A(1,7,13)             108.3769         estimate D2E/DX2                !
 ! A9    A(8,7,9)              114.0082         estimate D2E/DX2                !
 ! A10   A(8,7,13)             111.4156         estimate D2E/DX2                !
 ! A11   A(9,7,13)             110.9994         estimate D2E/DX2                !
 ! A12   A(2,8,7)              108.8951         estimate D2E/DX2                !
 ! A13   A(2,8,10)             108.2749         estimate D2E/DX2                !
 ! A14   A(2,8,14)             106.9416         estimate D2E/DX2                !
 ! A15   A(7,8,10)             111.4908         estimate D2E/DX2                !
 ! A16   A(7,8,14)             111.4047         estimate D2E/DX2                !
 ! A17   A(10,8,14)            109.6749         estimate D2E/DX2                !
 ! A18   A(3,9,7)              121.9666         estimate D2E/DX2                !
 ! A19   A(3,9,11)             126.1904         estimate D2E/DX2                !
 ! A20   A(7,9,11)             111.8271         estimate D2E/DX2                !
 ! A21   A(4,10,8)             108.9759         estimate D2E/DX2                !
 ! A22   A(4,10,15)            107.1401         estimate D2E/DX2                !
 ! A23   A(4,10,16)            108.6801         estimate D2E/DX2                !
 ! A24   A(8,10,15)            111.6118         estimate D2E/DX2                !
 ! A25   A(8,10,16)            111.0641         estimate D2E/DX2                !
 ! A26   A(15,10,16)           109.2476         estimate D2E/DX2                !
 ! A27   A(5,11,9)             128.4338         estimate D2E/DX2                !
 ! A28   A(5,11,12)            124.6489         estimate D2E/DX2                !
 ! A29   A(9,11,12)            106.9153         estimate D2E/DX2                !
 ! A30   A(1,12,6)             125.9038         estimate D2E/DX2                !
 ! A31   A(1,12,11)            108.3223         estimate D2E/DX2                !
 ! A32   A(6,12,11)            125.7734         estimate D2E/DX2                !
 ! D1    D(12,1,7,8)           120.4407         estimate D2E/DX2                !
 ! D2    D(12,1,7,9)            -0.739          estimate D2E/DX2                !
 ! D3    D(12,1,7,13)         -118.3327         estimate D2E/DX2                !
 ! D4    D(7,1,12,6)          -179.5049         estimate D2E/DX2                !
 ! D5    D(7,1,12,11)            0.767          estimate D2E/DX2                !
 ! D6    D(17,2,8,7)            61.6719         estimate D2E/DX2                !
 ! D7    D(17,2,8,10)          -59.7151         estimate D2E/DX2                !
 ! D8    D(17,2,8,14)         -177.8303         estimate D2E/DX2                !
 ! D9    D(18,3,9,7)             1.9379         estimate D2E/DX2                !
 ! D10   D(18,3,9,11)         -176.4894         estimate D2E/DX2                !
 ! D11   D(19,4,10,8)         -179.6785         estimate D2E/DX2                !
 ! D12   D(19,4,10,15)          59.4155         estimate D2E/DX2                !
 ! D13   D(19,4,10,16)         -58.5167         estimate D2E/DX2                !
 ! D14   D(20,5,11,9)          179.6392         estimate D2E/DX2                !
 ! D15   D(20,5,11,12)           0.2205         estimate D2E/DX2                !
 ! D16   D(1,7,8,2)            -56.3236         estimate D2E/DX2                !
 ! D17   D(1,7,8,10)            63.0805         estimate D2E/DX2                !
 ! D18   D(1,7,8,14)          -174.0327         estimate D2E/DX2                !
 ! D19   D(9,7,8,2)             57.7436         estimate D2E/DX2                !
 ! D20   D(9,7,8,10)           177.1476         estimate D2E/DX2                !
 ! D21   D(9,7,8,14)           -59.9656         estimate D2E/DX2                !
 ! D22   D(13,7,8,2)          -175.6666         estimate D2E/DX2                !
 ! D23   D(13,7,8,10)          -56.2626         estimate D2E/DX2                !
 ! D24   D(13,7,8,14)           66.6242         estimate D2E/DX2                !
 ! D25   D(1,7,9,3)           -178.182          estimate D2E/DX2                !
 ! D26   D(1,7,9,11)             0.4508         estimate D2E/DX2                !
 ! D27   D(8,7,9,3)             64.349          estimate D2E/DX2                !
 ! D28   D(8,7,9,11)          -117.0182         estimate D2E/DX2                !
 ! D29   D(13,7,9,3)           -62.4575         estimate D2E/DX2                !
 ! D30   D(13,7,9,11)          116.1753         estimate D2E/DX2                !
 ! D31   D(2,8,10,4)           -59.0137         estimate D2E/DX2                !
 ! D32   D(2,8,10,15)           59.1138         estimate D2E/DX2                !
 ! D33   D(2,8,10,16)         -178.7083         estimate D2E/DX2                !
 ! D34   D(7,8,10,4)          -178.7851         estimate D2E/DX2                !
 ! D35   D(7,8,10,15)          -60.6576         estimate D2E/DX2                !
 ! D36   D(7,8,10,16)           61.5203         estimate D2E/DX2                !
 ! D37   D(14,8,10,4)           57.3443         estimate D2E/DX2                !
 ! D38   D(14,8,10,15)         175.4718         estimate D2E/DX2                !
 ! D39   D(14,8,10,16)         -62.3503         estimate D2E/DX2                !
 ! D40   D(3,9,11,5)            -0.9507         estimate D2E/DX2                !
 ! D41   D(3,9,11,12)          178.5493         estimate D2E/DX2                !
 ! D42   D(7,9,11,5)          -179.5136         estimate D2E/DX2                !
 ! D43   D(7,9,11,12)           -0.0135         estimate D2E/DX2                !
 ! D44   D(5,11,12,1)          179.0592         estimate D2E/DX2                !
 ! D45   D(5,11,12,6)           -0.6693         estimate D2E/DX2                !
 ! D46   D(9,11,12,1)           -0.4648         estimate D2E/DX2                !
 ! D47   D(9,11,12,6)          179.8067         estimate D2E/DX2                !
 --------------------------------------------------------------------------------
 Trust Radius=3.00D-01 FncErr=1.00D-07 GrdErr=1.00D-06
 Number of steps in this run=    109 maximum allowed number of steps=    120.
 GradGradGradGradGradGradGradGradGradGradGradGradGradGradGradGradGradGrad

 Leave Link  103 at Sat Dec 09 23:42:41 2023, MaxMem=    33554432 cpu:         0.0
 (Enter C:\G09W\l202.exe)
                          Input orientation:                          
 ---------------------------------------------------------------------
 Center     Atomic      Atomic             Coordinates (Angstroms)
 Number     Number       Type             X           Y           Z
 ---------------------------------------------------------------------
      1          8           0        0.093200   -1.106600    0.644500
      2          8           0       -1.343600    0.089200   -1.386300
      3          8           0        0.839200    2.390100    0.284400
      4          8           0       -3.892900   -0.204000   -0.332600
      5          8           0        3.022000    0.569500   -0.605600
      6          8           0        1.991500   -2.156000   -0.137600
      7          6           0       -0.339700    0.261800    0.785300
      8          6           0       -1.605900    0.458500   -0.033000
      9          6           0        0.821200    1.026500    0.288700
     10          6           0       -2.746400   -0.408200    0.486300
     11          6           0        1.807700    0.227300   -0.104900
     12          6           0        1.353600   -1.148100    0.110800
     13          1           0       -0.515400    0.460900    1.848400
     14          1           0       -1.916200    1.509200   -0.043200
     15          1           0       -2.498900   -1.473500    0.435100
     16          1           0       -3.001300   -0.146200    1.517900
     17          1           0       -1.099900   -0.852200   -1.398600
     18          1           0        0.003900    2.695700    0.678000
     19          1           0       -4.602300   -0.764400    0.025700
     20          1           0        3.502400   -0.257200   -0.785600
 ---------------------------------------------------------------------
                    Distance matrix (angstroms):
                    1          2          3          4          5
     1  O    0.000000
     2  O    2.760160   0.000000
     3  O    3.593480   3.584689   0.000000
     4  O    4.202190   2.774019   5.431649   0.000000
     5  O    3.598601   4.460790   2.978473   6.963381   0.000000
     6  O    2.305746   4.209877   4.708811   6.202781   2.951153
     7  C    1.442132   2.398636   2.484022   3.753918   3.651070
     8  C    2.407381   1.427097   3.132145   2.399799   4.664510
     9  C    2.281818   2.893184   1.363726   4.911505   2.419120
    10  C    2.928501   2.392046   4.552777   1.423642   5.951687
    11  C    2.297912   3.404666   2.401510   5.721425   1.357323
    12  C    1.369367   3.323719   3.579609   5.349177   2.499387
    13  H    2.068049   3.359667   2.828931   4.075090   4.306635
    14  H    3.369426   2.036710   2.911277   2.631758   5.058176
    15  H    2.626299   2.663503   5.108133   2.035738   5.978063
    16  H    3.355760   3.352277   4.764848   2.054907   6.426634
    17  H    2.379593   0.972510   4.135832   3.058982   4.431720
    18  H    3.803496   3.587608   0.972645   4.961313   3.908617
    19  H    4.748445   3.652602   6.295055   0.972458   7.765808
    20  H    3.793325   4.895360   3.904578   7.409352   0.972942
                    6          7          8          9         10
     6  O    0.000000
     7  C    3.483101   0.000000
     8  C    4.448352   1.520384   0.000000
     9  C    3.417549   1.476166   2.513350   0.000000
    10  C    5.088394   2.516050   1.523674   3.850348   0.000000
    11  C    2.390600   2.324860   3.422176   1.329219   4.636076
    12  C    1.218393   2.304351   3.370531   2.245881   4.183115
    13  H    4.132422   1.095761   2.174595   2.130509   2.754635
    14  H    5.358425   2.174344   1.095610   2.799378   2.155464
    15  H    4.577934   2.792141   2.179264   4.158665   1.094871
    16  H    5.630988   2.790570   2.172117   4.183021   1.094448
    17  H    3.584239   2.566772   1.959294   3.172873   2.541839
    18  H    5.306105   2.460375   2.846408   1.898885   4.151517
    19  H    6.741025   4.449701   3.236872   5.717591   1.945095
    20  H    2.511606   4.183159   5.212808   3.160829   6.378717
                   11         12         13         14         15
    11  C    0.000000
    12  C    1.464397   0.000000
    13  H    3.044133   3.016835   0.000000
    14  H    3.938846   4.216225   2.576689   0.000000
    15  H    4.661665   3.879795   3.110240   3.076493   0.000000
    16  H    5.089152   4.684964   2.580213   2.520878   1.785101
    17  H    3.360523   2.895774   3.550899   2.842475   2.388655
    18  H    3.155887   4.113174   2.575624   2.369535   4.868802
    19  H    6.487575   5.968854   4.639649   3.519821   2.257149
    20  H    1.889471   2.492905   4.857606   5.747395   6.243805
                   16         17         18         19         20
    16  H    0.000000
    17  H    3.552426   0.000000
    18  H    4.220551   4.256552   0.000000
    19  H    2.274210   3.781950   5.797833   0.000000
    20  H    6.900474   4.680914   4.806376   8.160982   0.000000
 Stoichiometry    C6H8O6
 Framework group  C1[X(C6H8O6)]
 Deg. of freedom    54
 Full point group                 C1      NOp   1
 Largest Abelian subgroup         C1      NOp   1
 Largest concise Abelian subgroup C1      NOp   1
                         Standard orientation:                         
 ---------------------------------------------------------------------
 Center     Atomic      Atomic             Coordinates (Angstroms)
 Number     Number       Type             X           Y           Z
 ---------------------------------------------------------------------
      1          8           0       -0.159607   -1.090847   -0.692138
      2          8           0        1.227275    0.060148    1.398376
      3          8           0       -0.969777    2.379204   -0.227949
      4          8           0        3.796124   -0.155900    0.373917
      5          8           0       -3.134093    0.494378    0.568585
      6          8           0       -2.050981   -2.196739    0.026311
      7          6           0        0.252071    0.288409   -0.781148
      8          6           0        1.502810    0.478542    0.062101
      9          6           0       -0.928651    1.016982   -0.277023
     10          6           0        2.665191   -0.351542   -0.468384
     11          6           0       -1.907072    0.189027    0.075122
     12          6           0       -1.426701   -1.170787   -0.179063
     13          1           0        0.439715    0.525639   -1.834336
     14          1           0        1.795111    1.533276    0.111658
     15          1           0        2.435034   -1.421878   -0.456122
     16          1           0        2.930496   -0.051202   -1.486827
     17          1           0        0.999384   -0.885016    1.375914
     18          1           0       -0.134169    2.711416   -0.598667
     19          1           0        4.520005   -0.692335    0.007979
     20          1           0       -3.602989   -0.345635    0.713952
 ---------------------------------------------------------------------
 Rotational constants (GHZ):      1.6506431      0.6275161      0.5170232
 Leave Link  202 at Sat Dec 09 23:42:41 2023, MaxMem=    33554432 cpu:         0.0
 (Enter C:\G09W\l301.exe)
 Standard basis: 6-31G (6D, 7F)
 Ernie: Thresh=  0.10000D-02 Tol=  0.10000D-05 Strict=F.
 There are   124 symmetry adapted cartesian basis functions of A   symmetry.
 There are   124 symmetry adapted basis functions of A   symmetry.
   124 basis functions,   296 primitive gaussians,   124 cartesian basis functions
    46 alpha electrons       46 beta electrons
       nuclear repulsion energy       761.4019109708 Hartrees.
 IExCor=  402 DFT=T Ex+Corr=B3LYP ExCW=0 ScaHFX=  0.200000
 ScaDFX=  0.800000  0.720000  1.000000  0.810000 ScalE2=  1.000000  1.000000
 IRadAn=      0 IRanWt=     -1 IRanGd=            0 ICorTp=0 IEmpDi=  4
 NAtoms=   20 NActive=   20 NUniq=   20 SFac= 1.00D+00 NAtFMM=   60 NAOKFM=F Big=F
 Integral buffers will be    262144 words long.
 Raffenetti 2 integral format.
 Two-electron integral symmetry is turned on.
 Leave Link  301 at Sat Dec 09 23:42:41 2023, MaxMem=    33554432 cpu:         0.0
 (Enter C:\G09W\l302.exe)
 NPDir=0 NMtPBC=     1 NCelOv=     1 NCel=       1 NClECP=     1 NCelD=      1
         NCelK=      1 NCelE2=     1 NClLst=     1 CellRange=     0.0.
 One-electron integrals computed using PRISM.
 NBasis=   124 RedAO= T EigKep=  1.32D-03  NBF=   124
 NBsUse=   124 1.00D-06 EigRej= -1.00D+00 NBFU=   124
 Precomputing XC quadrature grid using
 IXCGrd= 4 IRadAn=           0 IRanWt=          -1 IRanGd=           0 AccXCQ= 0.00D+00.
 Generated NRdTot=       0 NPtTot=           0 NUsed=           0 NTot=          16
 NSgBfM=   123   123   123   123   123 MxSgAt=    20 MxSgA2=    20.
 Leave Link  302 at Sat Dec 09 23:42:41 2023, MaxMem=    33554432 cpu:         0.0
 (Enter C:\G09W\l303.exe)
 DipDrv:  MaxL=1.
 Leave Link  303 at Sat Dec 09 23:42:41 2023, MaxMem=    33554432 cpu:         0.0
 (Enter C:\G09W\l401.exe)
 ExpMin= 1.61D-01 ExpMax= 5.48D+03 ExpMxC= 8.25D+02 IAcc=1 IRadAn=         1 AccDes= 0.00D+00
 Harris functional with IExCor=  402 and IRadAn=       1 diagonalized for initial guess.
 HarFok:  IExCor=  402 AccDes= 0.00D+00 IRadAn=         1 IDoV= 1 UseB2=F ITyADJ=14
 ICtDFT=  3500011 ScaDFX=  1.000000  1.000000  1.000000  1.000000
 FoFCou: FMM=F IPFlag=           0 FMFlag=      100000 FMFlg1=           0
         NFxFlg=           0 DoJE=T BraDBF=F KetDBF=T FulRan=T
         wScrn=  0.000000 ICntrl=     500 IOpCl=  0 I1Cent=   200000004 NGrid=           0
         NMat0=    1 NMatS0=      1 NMatT0=    0 NMatD0=    1 NMtDS0=    0 NMtDT0=    0
 Petite list used in FoFCou.
 Harris En= -684.571327093194    
 JPrj=0 DoOrth=F DoCkMO=F.
 Leave Link  401 at Sat Dec 09 23:42:44 2023, MaxMem=    33554432 cpu:         3.0
 (Enter C:\G09W\l502.exe)
 Closed shell SCF:
 Using DIIS extrapolation, IDIIS=  1040.
 Integral symmetry usage will be decided dynamically.
 Keep R1 ints in memory in canonical form, NReq=31069976.
 IVT=       66101 IEndB=       66101 NGot=    33554432 MDV=     3453207
 LenX=     3453207 LenY=     3437390
 Requested convergence on RMS density matrix=1.00D-08 within 128 cycles.
 Requested convergence on MAX density matrix=1.00D-06.
 Requested convergence on             energy=1.00D-06.
 No special actions if energy rises.
 FoFCou: FMM=F IPFlag=           0 FMFlag=           0 FMFlg1=           0
         NFxFlg=           0 DoJE=F BraDBF=F KetDBF=F FulRan=T
         wScrn=  0.000000 ICntrl=     600 IOpCl=  0 I1Cent=           0 NGrid=           0
         NMat0=    1 NMatS0=   7750 NMatT0=    0 NMatD0=    1 NMtDS0=    0 NMtDT0=    0
 Symmetry not used in FoFCou.
 Integral accuracy reduced to 1.0D-05 until final iterations.

 Cycle   1  Pass 0  IDiag  1:
 E= -684.215546611032    
 DIIS: error= 3.14D-02 at cycle   1 NSaved=   1.
 NSaved= 1 IEnMin= 1 EnMin= -684.215546611032     IErMin= 1 ErrMin= 3.14D-02
 ErrMax= 3.14D-02  0.00D+00 EMaxC= 1.00D-01 BMatC= 3.40D-01 BMatP= 3.40D-01
 IDIUse=3 WtCom= 6.86D-01 WtEn= 3.14D-01
 Coeff-Com:  0.100D+01
 Coeff-En:   0.100D+01
 Coeff:      0.100D+01
 Gap=     0.153 Goal=   None    Shift=    0.000
 GapD=    0.153 DampG=1.000 DampE=0.500 DampFc=0.5000 IDamp=-1.
 Damping current iteration by 5.00D-01
 RMSDP=1.54D-02 MaxDP=3.48D-01              OVMax= 3.06D-01

 Cycle   2  Pass 0  IDiag  1:
 E= -684.244862067950     Delta-E=       -0.029315456918 Rises=F Damp=T
 DIIS: error= 2.33D-02 at cycle   2 NSaved=   2.
 NSaved= 2 IEnMin= 2 EnMin= -684.244862067950     IErMin= 2 ErrMin= 2.33D-02
 ErrMax= 2.33D-02  0.00D+00 EMaxC= 1.00D-01 BMatC= 7.94D-02 BMatP= 3.40D-01
 IDIUse=3 WtCom= 7.67D-01 WtEn= 2.33D-01
 Coeff-Com:  0.294D+00 0.706D+00
 Coeff-En:   0.455D+00 0.545D+00
 Coeff:      0.331D+00 0.669D+00
 Gap=     0.205 Goal=   None    Shift=    0.000
 RMSDP=4.25D-03 MaxDP=7.37D-02 DE=-2.93D-02 OVMax= 2.06D-01

 Cycle   3  Pass 0  IDiag  1:
 E= -684.455325526376     Delta-E=       -0.210463458426 Rises=F Damp=F
 DIIS: error= 1.99D-02 at cycle   3 NSaved=   3.
 NSaved= 3 IEnMin= 3 EnMin= -684.455325526376     IErMin= 3 ErrMin= 1.99D-02
 ErrMax= 1.99D-02  0.00D+00 EMaxC= 1.00D-01 BMatC= 4.66D-02 BMatP= 7.94D-02
 IDIUse=3 WtCom= 8.01D-01 WtEn= 1.99D-01
 Coeff-Com:  0.155D+00 0.430D+00 0.415D+00
 Coeff-En:   0.000D+00 0.000D+00 0.100D+01
 Coeff:      0.124D+00 0.344D+00 0.532D+00
 Gap=     0.199 Goal=   None    Shift=    0.000
 RMSDP=2.96D-03 MaxDP=6.32D-02 DE=-2.10D-01 OVMax= 1.02D-01

 Cycle   4  Pass 0  IDiag  1:
 E= -684.483103402600     Delta-E=       -0.027777876224 Rises=F Damp=F
 DIIS: error= 1.45D-02 at cycle   4 NSaved=   4.
 NSaved= 4 IEnMin= 4 EnMin= -684.483103402600     IErMin= 4 ErrMin= 1.45D-02
 ErrMax= 1.45D-02  0.00D+00 EMaxC= 1.00D-01 BMatC= 1.77D-02 BMatP= 4.66D-02
 IDIUse=3 WtCom= 8.55D-01 WtEn= 1.45D-01
 Coeff-Com:  0.546D-01 0.109D+00 0.365D+00 0.472D+00
 Coeff-En:   0.000D+00 0.000D+00 0.298D+00 0.702D+00
 Coeff:      0.467D-01 0.930D-01 0.355D+00 0.505D+00
 Gap=     0.191 Goal=   None    Shift=    0.000
 RMSDP=1.22D-03 MaxDP=3.01D-02 DE=-2.78D-02 OVMax= 4.19D-02

 Cycle   5  Pass 0  IDiag  1:
 E= -684.497055157395     Delta-E=       -0.013951754795 Rises=F Damp=F
 DIIS: error= 1.59D-03 at cycle   5 NSaved=   5.
 NSaved= 5 IEnMin= 5 EnMin= -684.497055157395     IErMin= 5 ErrMin= 1.59D-03
 ErrMax= 1.59D-03  0.00D+00 EMaxC= 1.00D-01 BMatC= 6.66D-04 BMatP= 1.77D-02
 IDIUse=3 WtCom= 9.84D-01 WtEn= 1.59D-02
 Coeff-Com:  0.859D-02-0.486D-03 0.133D+00 0.282D+00 0.577D+00
 Coeff-En:   0.000D+00 0.000D+00 0.000D+00 0.000D+00 0.100D+01
 Coeff:      0.845D-02-0.478D-03 0.131D+00 0.278D+00 0.584D+00
 Gap=     0.191 Goal=   None    Shift=    0.000
 RMSDP=2.63D-04 MaxDP=4.75D-03 DE=-1.40D-02 OVMax= 8.56D-03

 Cycle   6  Pass 0  IDiag  1:
 E= -684.497629954485     Delta-E=       -0.000574797089 Rises=F Damp=F
 DIIS: error= 4.94D-04 at cycle   6 NSaved=   6.
 NSaved= 6 IEnMin= 6 EnMin= -684.497629954485     IErMin= 6 ErrMin= 4.94D-04
 ErrMax= 4.94D-04  0.00D+00 EMaxC= 1.00D-01 BMatC= 3.14D-05 BMatP= 6.66D-04
 IDIUse=3 WtCom= 9.95D-01 WtEn= 4.94D-03
 Coeff-Com:  0.205D-02-0.620D-02 0.463D-01 0.109D+00 0.293D+00 0.556D+00
 Coeff-En:   0.000D+00 0.000D+00 0.000D+00 0.000D+00 0.000D+00 0.100D+01
 Coeff:      0.204D-02-0.617D-02 0.461D-01 0.108D+00 0.292D+00 0.558D+00
 Gap=     0.192 Goal=   None    Shift=    0.000
 RMSDP=5.64D-05 MaxDP=1.22D-03 DE=-5.75D-04 OVMax= 2.11D-03

 Cycle   7  Pass 0  IDiag  1:
 E= -684.497655973366     Delta-E=       -0.000026018881 Rises=F Damp=F
 DIIS: error= 1.28D-04 at cycle   7 NSaved=   7.
 NSaved= 7 IEnMin= 7 EnMin= -684.497655973366     IErMin= 7 ErrMin= 1.28D-04
 ErrMax= 1.28D-04  0.00D+00 EMaxC= 1.00D-01 BMatC= 3.25D-06 BMatP= 3.14D-05
 IDIUse=3 WtCom= 9.99D-01 WtEn= 1.28D-03
 Coeff-Com:  0.435D-03-0.307D-02 0.101D-01 0.244D-01 0.918D-01 0.292D+00
 Coeff-Com:  0.585D+00
 Coeff-En:   0.000D+00 0.000D+00 0.000D+00 0.000D+00 0.000D+00 0.000D+00
 Coeff-En:   0.100D+01
 Coeff:      0.435D-03-0.306D-02 0.101D-01 0.244D-01 0.916D-01 0.291D+00
 Coeff:      0.585D+00
 Gap=     0.192 Goal=   None    Shift=    0.000
 RMSDP=1.82D-05 MaxDP=4.21D-04 DE=-2.60D-05 OVMax= 7.85D-04

 Cycle   8  Pass 0  IDiag  1:
 E= -684.497658041026     Delta-E=       -0.000002067660 Rises=F Damp=F
 DIIS: error= 5.91D-05 at cycle   8 NSaved=   8.
 NSaved= 8 IEnMin= 8 EnMin= -684.497658041026     IErMin= 8 ErrMin= 5.91D-05
 ErrMax= 5.91D-05  0.00D+00 EMaxC= 1.00D-01 BMatC= 5.23D-07 BMatP= 3.25D-06
 IDIUse=1 WtCom= 1.00D+00 WtEn= 0.00D+00
 Coeff-Com:  0.108D-03-0.104D-02 0.104D-02 0.209D-02 0.228D-01 0.113D+00
 Coeff-Com:  0.354D+00 0.507D+00
 Coeff:      0.108D-03-0.104D-02 0.104D-02 0.209D-02 0.228D-01 0.113D+00
 Coeff:      0.354D+00 0.507D+00
 Gap=     0.192 Goal=   None    Shift=    0.000
 RMSDP=8.31D-06 MaxDP=1.34D-04 DE=-2.07D-06 OVMax= 4.28D-04

 Initial convergence to 1.0D-05 achieved.  Increase integral accuracy.
 Cycle   9  Pass 1  IDiag  1:
 E= -684.497717093501     Delta-E=       -0.000059052475 Rises=F Damp=F
 DIIS: error= 1.73D-05 at cycle   1 NSaved=   1.
 NSaved= 1 IEnMin= 1 EnMin= -684.497717093501     IErMin= 1 ErrMin= 1.73D-05
 ErrMax= 1.73D-05  0.00D+00 EMaxC= 1.00D-01 BMatC= 7.29D-08 BMatP= 7.29D-08
 IDIUse=1 WtCom= 1.00D+00 WtEn= 0.00D+00
 Coeff-Com:  0.100D+01
 Coeff:      0.100D+01
 Gap=     0.192 Goal=   None    Shift=    0.000
 RMSDP=8.31D-06 MaxDP=1.34D-04 DE=-5.91D-05 OVMax= 2.44D-04

 Cycle  10  Pass 1  IDiag  1:
 E= -684.497717125088     Delta-E=       -0.000000031587 Rises=F Damp=F
 DIIS: error= 2.95D-05 at cycle   2 NSaved=   2.
 NSaved= 2 IEnMin= 2 EnMin= -684.497717125088     IErMin= 1 ErrMin= 1.73D-05
 ErrMax= 2.95D-05  0.00D+00 EMaxC= 1.00D-01 BMatC= 7.74D-08 BMatP= 7.29D-08
 IDIUse=1 WtCom= 1.00D+00 WtEn= 0.00D+00
 Coeff-Com:  0.510D+00 0.490D+00
 Coeff:      0.510D+00 0.490D+00
 Gap=     0.192 Goal=   None    Shift=    0.000
 RMSDP=3.75D-06 MaxDP=9.80D-05 DE=-3.16D-08 OVMax= 2.17D-04

 Cycle  11  Pass 1  IDiag  1:
 E= -684.497717186449     Delta-E=       -0.000000061361 Rises=F Damp=F
 DIIS: error= 1.45D-05 at cycle   3 NSaved=   3.
 NSaved= 3 IEnMin= 3 EnMin= -684.497717186449     IErMin= 3 ErrMin= 1.45D-05
 ErrMax= 1.45D-05  0.00D+00 EMaxC= 1.00D-01 BMatC= 1.69D-08 BMatP= 7.29D-08
 IDIUse=1 WtCom= 1.00D+00 WtEn= 0.00D+00
 Coeff-Com: -0.941D-02 0.315D+00 0.694D+00
 Coeff:     -0.941D-02 0.315D+00 0.694D+00
 Gap=     0.192 Goal=   None    Shift=    0.000
 RMSDP=1.26D-06 MaxDP=3.17D-05 DE=-6.14D-08 OVMax= 7.20D-05

 Cycle  12  Pass 1  IDiag  1:
 E= -684.497717202410     Delta-E=       -0.000000015960 Rises=F Damp=F
 DIIS: error= 2.05D-06 at cycle   4 NSaved=   4.
 NSaved= 4 IEnMin= 4 EnMin= -684.497717202410     IErMin= 4 ErrMin= 2.05D-06
 ErrMax= 2.05D-06  0.00D+00 EMaxC= 1.00D-01 BMatC= 8.55D-10 BMatP= 1.69D-08
 IDIUse=1 WtCom= 1.00D+00 WtEn= 0.00D+00
 Coeff-Com: -0.187D-01 0.171D+00 0.398D+00 0.449D+00
 Coeff:     -0.187D-01 0.171D+00 0.398D+00 0.449D+00
 Gap=     0.192 Goal=   None    Shift=    0.000
 RMSDP=2.52D-07 MaxDP=7.02D-06 DE=-1.60D-08 OVMax= 4.62D-06

 Cycle  13  Pass 1  IDiag  1:
 E= -684.497717203060     Delta-E=       -0.000000000651 Rises=F Damp=F
 DIIS: error= 3.87D-07 at cycle   5 NSaved=   5.
 NSaved= 5 IEnMin= 5 EnMin= -684.497717203060     IErMin= 5 ErrMin= 3.87D-07
 ErrMax= 3.87D-07  0.00D+00 EMaxC= 1.00D-01 BMatC= 2.82D-11 BMatP= 8.55D-10
 IDIUse=1 WtCom= 1.00D+00 WtEn= 0.00D+00
 Coeff-Com: -0.830D-02 0.592D-01 0.140D+00 0.218D+00 0.591D+00
 Coeff:     -0.830D-02 0.592D-01 0.140D+00 0.218D+00 0.591D+00
 Gap=     0.192 Goal=   None    Shift=    0.000
 RMSDP=7.16D-08 MaxDP=1.11D-06 DE=-6.51D-10 OVMax= 1.76D-06

 Cycle  14  Pass 1  IDiag  1:
 E= -684.497717203085     Delta-E=       -0.000000000025 Rises=F Damp=F
 DIIS: error= 8.22D-08 at cycle   6 NSaved=   6.
 NSaved= 6 IEnMin= 6 EnMin= -684.497717203085     IErMin= 6 ErrMin= 8.22D-08
 ErrMax= 8.22D-08  0.00D+00 EMaxC= 1.00D-01 BMatC= 1.87D-12 BMatP= 2.82D-11
 IDIUse=1 WtCom= 1.00D+00 WtEn= 0.00D+00
 Coeff-Com: -0.222D-02 0.127D-01 0.310D-01 0.609D-01 0.267D+00 0.631D+00
 Coeff:     -0.222D-02 0.127D-01 0.310D-01 0.609D-01 0.267D+00 0.631D+00
 Gap=     0.192 Goal=   None    Shift=    0.000
 RMSDP=1.74D-08 MaxDP=3.04D-07 DE=-2.50D-11 OVMax= 3.92D-07

 Cycle  15  Pass 1  IDiag  1:
 E= -684.497717203089     Delta-E=       -0.000000000003 Rises=F Damp=F
 DIIS: error= 3.11D-08 at cycle   7 NSaved=   7.
 NSaved= 7 IEnMin= 7 EnMin= -684.497717203089     IErMin= 7 ErrMin= 3.11D-08
 ErrMax= 3.11D-08  0.00D+00 EMaxC= 1.00D-01 BMatC= 2.58D-13 BMatP= 1.87D-12
 IDIUse=1 WtCom= 1.00D+00 WtEn= 0.00D+00
 Coeff-Com: -0.227D-03-0.338D-04 0.857D-03 0.764D-02 0.733D-01 0.316D+00
 Coeff-Com:  0.602D+00
 Coeff:     -0.227D-03-0.338D-04 0.857D-03 0.764D-02 0.733D-01 0.316D+00
 Coeff:      0.602D+00
 Gap=     0.192 Goal=   None    Shift=    0.000
 RMSDP=5.66D-09 MaxDP=8.43D-08 DE=-3.41D-12 OVMax= 1.55D-07

 SCF Done:  E(RB3LYP) =  -684.497717203     A.U. after   15 cycles
            NFock= 15  Conv=0.57D-08     -V/T= 2.0045
 KE= 6.814572498364D+02 PE=-3.129011292416D+03 EE= 1.001654414406D+03
 Leave Link  502 at Sat Dec 09 23:43:22 2023, MaxMem=    33554432 cpu:        38.0
 (Enter C:\G09W\l601.exe)
 Copying SCF densities to generalized density rwf, IOpCl= 0 IROHF=0.

 **********************************************************************

            Population analysis using the SCF density.

 **********************************************************************

 Orbital symmetries:
       Occupied  (A) (A) (A) (A) (A) (A) (A) (A) (A) (A) (A) (A)
                 (A) (A) (A) (A) (A) (A) (A) (A) (A) (A) (A) (A)
                 (A) (A) (A) (A) (A) (A) (A) (A) (A) (A) (A) (A)
                 (A) (A) (A) (A) (A) (A) (A) (A) (A) (A)
       Virtual   (A) (A) (A) (A) (A) (A) (A) (A) (A) (A) (A) (A)
                 (A) (A) (A) (A) (A) (A) (A) (A) (A) (A) (A) (A)
                 (A) (A) (A) (A) (A) (A) (A) (A) (A) (A) (A) (A)
                 (A) (A) (A) (A) (A) (A) (A) (A) (A) (A) (A) (A)
                 (A) (A) (A) (A) (A) (A) (A) (A) (A) (A) (A) (A)
                 (A) (A) (A) (A) (A) (A) (A) (A) (A) (A) (A) (A)
                 (A) (A) (A) (A) (A) (A)
 The electronic state is 1-A.
 Alpha  occ. eigenvalues --  -19.22063 -19.21394 -19.19192 -19.15955 -19.15625
 Alpha  occ. eigenvalues --  -19.15369 -10.34284 -10.29286 -10.28047 -10.27425
 Alpha  occ. eigenvalues --  -10.26633 -10.25346  -1.15340  -1.10958  -1.08970
 Alpha  occ. eigenvalues --   -1.06793  -1.05643  -1.03674  -0.84221  -0.81400
 Alpha  occ. eigenvalues --   -0.73507  -0.66379  -0.64568  -0.62385  -0.57390
 Alpha  occ. eigenvalues --   -0.56188  -0.55304  -0.52100  -0.51400  -0.49862
 Alpha  occ. eigenvalues --   -0.46203  -0.45191  -0.44909  -0.44440  -0.42865
 Alpha  occ. eigenvalues --   -0.42112  -0.39146  -0.37674  -0.36612  -0.36331
 Alpha  occ. eigenvalues --   -0.33400  -0.32672  -0.29733  -0.29036  -0.28029
 Alpha  occ. eigenvalues --   -0.23722
 Alpha virt. eigenvalues --   -0.04544   0.01249   0.04620   0.05685   0.06535
 Alpha virt. eigenvalues --    0.07852   0.09403   0.10042   0.12116   0.13990
 Alpha virt. eigenvalues --    0.16314   0.17525   0.18473   0.19571   0.21574
 Alpha virt. eigenvalues --    0.23202   0.24599   0.26034   0.30233   0.34813
 Alpha virt. eigenvalues --    0.43477   0.46272   0.49588   0.51067   0.55025
 Alpha virt. eigenvalues --    0.56293   0.57917   0.58257   0.60662   0.61670
 Alpha virt. eigenvalues --    0.63425   0.65045   0.65450   0.66324   0.67716
 Alpha virt. eigenvalues --    0.71152   0.73149   0.74421   0.77151   0.78918
 Alpha virt. eigenvalues --    0.79453   0.81090   0.83636   0.84967   0.86568
 Alpha virt. eigenvalues --    0.87615   0.90083   0.92759   0.93807   0.95192
 Alpha virt. eigenvalues --    0.97449   0.98839   1.00253   1.02852   1.04596
 Alpha virt. eigenvalues --    1.05061   1.06003   1.07468   1.10563   1.10952
 Alpha virt. eigenvalues --    1.13672   1.16923   1.18201   1.23384   1.26444
 Alpha virt. eigenvalues --    1.28104   1.30612   1.35195   1.41241   1.47019
 Alpha virt. eigenvalues --    1.54348   1.61074   1.81633   1.84003   1.92388
 Alpha virt. eigenvalues --    2.00821   2.14913   2.19152
          Condensed to atoms (all electrons):
               1          2          3          4          5          6
     1  O    8.621004  -0.007128   0.002087   0.000022   0.001678  -0.075347
     2  O   -0.007128   8.252467  -0.000499   0.002440  -0.000005  -0.000026
     3  O    0.002087  -0.000499   8.190923   0.000000   0.002639  -0.000011
     4  O    0.000022   0.002440   0.000000   8.290640   0.000000   0.000000
     5  O    0.001678  -0.000005   0.002639   0.000000   8.198776  -0.002099
     6  O   -0.075347  -0.000026  -0.000011   0.000000  -0.002099   8.025768
     7  C    0.117686  -0.057561  -0.079896   0.002360   0.004495   0.003141
     8  C   -0.047083   0.236901   0.003887  -0.060072   0.000044   0.000015
     9  C   -0.011882  -0.000662   0.236661  -0.000079  -0.068887   0.005644
    10  C   -0.007678  -0.063847   0.000009   0.215946   0.000000   0.000004
    11  C   -0.150363   0.001627  -0.050191   0.000001   0.272453  -0.102139
    12  C    0.068390   0.003773   0.003576  -0.000004  -0.072458   0.541708
    13  H   -0.036583   0.004365   0.001337  -0.000014   0.000005   0.000026
    14  H    0.003192  -0.041466   0.002676   0.003118   0.000000   0.000000
    15  H    0.006842  -0.005100  -0.000003  -0.053601   0.000000  -0.000010
    16  H    0.000132   0.004924   0.000000  -0.050994   0.000000   0.000000
    17  H    0.011841   0.243059  -0.000033   0.000370  -0.000011  -0.000351
    18  H    0.000282  -0.000124   0.246088   0.000000  -0.000116   0.000001
    19  H    0.000005  -0.000026   0.000000   0.240005   0.000000   0.000000
    20  H    0.000739  -0.000001  -0.000134   0.000000   0.248231   0.015686
               7          8          9         10         11         12
     1  O    0.117686  -0.047083  -0.011882  -0.007678  -0.150363   0.068390
     2  O   -0.057561   0.236901  -0.000662  -0.063847   0.001627   0.003773
     3  O   -0.079896   0.003887   0.236661   0.000009  -0.050191   0.003576
     4  O    0.002360  -0.060072  -0.000079   0.215946   0.000001  -0.000004
     5  O    0.004495   0.000044  -0.068887   0.000000   0.272453  -0.072458
     6  O    0.003141   0.000015   0.005644   0.000004  -0.102139   0.541708
     7  C    5.652345   0.046957   0.238034  -0.023109  -0.074493  -0.052745
     8  C    0.046957   5.371440  -0.053199   0.202984  -0.005414  -0.002269
     9  C    0.238034  -0.053199   5.301217   0.006350   0.180079  -0.058950
    10  C   -0.023109   0.202984   0.006350   5.090800  -0.000410   0.000343
    11  C   -0.074493  -0.005414   0.180079  -0.000410   5.607401   0.104314
    12  C   -0.052745  -0.002269  -0.058950   0.000343   0.104314   4.983536
    13  H    0.342876  -0.061283  -0.057230  -0.001256  -0.002448   0.001795
    14  H   -0.058553   0.365384  -0.008600  -0.046467   0.000875  -0.000106
    15  H   -0.006481  -0.034233  -0.000256   0.362997   0.000076   0.000289
    16  H    0.006849  -0.046844  -0.000084   0.331267  -0.000004  -0.000032
    17  H   -0.005915  -0.047938  -0.003017  -0.003767   0.001808   0.001382
    18  H   -0.013079   0.001284  -0.036286  -0.000315   0.011627  -0.000160
    19  H   -0.000310   0.008726   0.000006  -0.033967   0.000000   0.000000
    20  H   -0.000386   0.000007   0.013088   0.000000  -0.045386  -0.005303
              13         14         15         16         17         18
     1  O   -0.036583   0.003192   0.006842   0.000132   0.011841   0.000282
     2  O    0.004365  -0.041466  -0.005100   0.004924   0.243059  -0.000124
     3  O    0.001337   0.002676  -0.000003   0.000000  -0.000033   0.246088
     4  O   -0.000014   0.003118  -0.053601  -0.050994   0.000370   0.000000
     5  O    0.000005   0.000000   0.000000   0.000000  -0.000011  -0.000116
     6  O    0.000026   0.000000  -0.000010   0.000000  -0.000351   0.000001
     7  C    0.342876  -0.058553  -0.006481   0.006849  -0.005915  -0.013079
     8  C   -0.061283   0.365384  -0.034233  -0.046844  -0.047938   0.001284
     9  C   -0.057230  -0.008600  -0.000256  -0.000084  -0.003017  -0.036286
    10  C   -0.001256  -0.046467   0.362997   0.331267  -0.003767  -0.000315
    11  C   -0.002448   0.000875   0.000076  -0.000004   0.001808   0.011627
    12  C    0.001795  -0.000106   0.000289  -0.000032   0.001382  -0.000160
    13  H    0.620740   0.002781  -0.000143   0.003268   0.000500   0.002196
    14  H    0.002781   0.598200   0.005907  -0.003571   0.007522   0.004838
    15  H   -0.000143   0.005907   0.619482  -0.050606   0.004959   0.000003
    16  H    0.003268  -0.003571  -0.050606   0.689452   0.000175   0.000015
    17  H    0.000500   0.007522   0.004959   0.000175   0.418452   0.000018
    18  H    0.002196   0.004838   0.000003   0.000015   0.000018   0.407551
    19  H   -0.000006  -0.000095  -0.003596  -0.004910  -0.000056   0.000000
    20  H    0.000008   0.000000   0.000000   0.000000   0.000000   0.000014
              19         20
     1  O    0.000005   0.000739
     2  O   -0.000026  -0.000001
     3  O    0.000000  -0.000134
     4  O    0.240005   0.000000
     5  O    0.000000   0.248231
     6  O    0.000000   0.015686
     7  C   -0.000310  -0.000386
     8  C    0.008726   0.000007
     9  C    0.000006   0.013088
    10  C   -0.033967   0.000000
    11  C    0.000000  -0.045386
    12  C    0.000000  -0.005303
    13  H   -0.000006   0.000008
    14  H   -0.000095   0.000000
    15  H   -0.003596   0.000000
    16  H   -0.004910   0.000000
    17  H   -0.000056   0.000000
    18  H    0.000000   0.000014
    19  H    0.431390   0.000000
    20  H    0.000000   0.384505
 Mulliken charges:
               1
     1  O   -0.497835
     2  O   -0.573110
     3  O   -0.559119
     4  O   -0.590137
     5  O   -0.584746
     6  O   -0.412009
     7  C   -0.042216
     8  C    0.120703
     9  C    0.318051
    10  C   -0.029884
    11  C    0.250586
    12  C    0.482921
    13  H    0.179067
    14  H    0.164364
    15  H    0.153475
    16  H    0.120962
    17  H    0.371001
    18  H    0.376162
    19  H    0.362834
    20  H    0.388930
 Sum of Mulliken charges =   0.00000
 Mulliken charges with hydrogens summed into heavy atoms:
               1
     1  O   -0.497835
     2  O   -0.202109
     3  O   -0.182957
     4  O   -0.227303
     5  O   -0.195816
     6  O   -0.412009
     7  C    0.136852
     8  C    0.285067
     9  C    0.318051
    10  C    0.244553
    11  C    0.250586
    12  C    0.482921
 Electronic spatial extent (au):  <R**2>=           2153.9854
 Charge=              0.0000 electrons
 Dipole moment (field-independent basis, Debye):
    X=              3.1928    Y=              0.6581    Z=             -3.9114  Tot=              5.0918
 Quadrupole moment (field-independent basis, Debye-Ang):
   XX=            -65.8162   YY=            -73.7423   ZZ=            -70.2546
   XY=             -2.0106   XZ=             -8.9952   YZ=             -7.1406
 Traceless Quadrupole moment (field-independent basis, Debye-Ang):
   XX=              4.1215   YY=             -3.8046   ZZ=             -0.3169
   XY=             -2.0106   XZ=             -8.9952   YZ=             -7.1406
 Octapole moment (field-independent basis, Debye-Ang**2):
  XXX=             27.7139  YYY=             27.6189  ZZZ=             -2.6514  XYY=             39.3255
  XXY=            -38.5715  XXZ=            -19.7035  XZZ=             -7.3956  YZZ=             -2.6502
  YYZ=             -1.5635  XYZ=              0.6948
 Hexadecapole moment (field-independent basis, Debye-Ang**3):
 XXXX=          -1436.8907 YYYY=           -609.2790 ZZZZ=           -222.2140 XXXY=            -69.0759
 XXXZ=           -107.9211 YYYX=            -16.6266 YYYZ=            -22.6216 ZZZX=             -9.5893
 ZZZY=            -12.9346 XXYY=           -425.6087 XXZZ=           -338.7590 YYZZ=           -127.6419
 XXYZ=            -10.3580 YYXZ=              4.1867 ZZXY=              1.9104
 N-N= 7.614019109708D+02 E-N=-3.129011298483D+03  KE= 6.814572498364D+02
 No NMR shielding tensors so no spin-rotation constants.
 Leave Link  601 at Sat Dec 09 23:43:22 2023, MaxMem=    33554432 cpu:         0.0
 (Enter C:\G09W\l701.exe)
 Compute integral first derivatives.
 ... and contract with generalized density number  0.
 Leave Link  701 at Sat Dec 09 23:43:22 2023, MaxMem=    33554432 cpu:         0.0
 (Enter C:\G09W\l702.exe)
 L702 exits ... SP integral derivatives will be done elsewhere.
 Leave Link  702 at Sat Dec 09 23:43:22 2023, MaxMem=    33554432 cpu:         0.0
 (Enter C:\G09W\l703.exe)
 Compute integral first derivatives, UseDBF=F ICtDFT=           0.
 Integral derivatives from FoFJK, PRISM(SPDF).
 Calling FoFJK, ICntrl=      2127 FMM=F ISym2X=0 I1Cent= 0 IOpClX= 0 NMat=1 NMatS=1 NMatT=0.
 FoFJK:  IHMeth= 1 ICntrl=    2127 DoSepK=F KAlg= 0 I1Cent=   0 FoldK=F
 IRaf=         0 NMat=   1 IRICut=       1 DoRegI=T DoRafI=F ISym2E= 0.
 FoFCou: FMM=F IPFlag=           0 FMFlag=      100000 FMFlg1=         800
         NFxFlg=           0 DoJE=F BraDBF=F KetDBF=F FulRan=T
         wScrn=  0.000000 ICntrl=    2127 IOpCl=  0 I1Cent=           0 NGrid=           0
         NMat0=    1 NMatS0=      1 NMatT0=    0 NMatD0=    1 NMtDS0=    0 NMtDT0=    0
 Symmetry not used in FoFCou.
 Leave Link  703 at Sat Dec 09 23:43:33 2023, MaxMem=    33554432 cpu:        11.0
 (Enter C:\G09W\l716.exe)
 Dipole        = 1.25615216D+00 2.58905786D-01-1.53884875D+00
 ***** Axes restored to original set *****
 -------------------------------------------------------------------
 Center     Atomic                   Forces (Hartrees/Bohr)
 Number     Number              X              Y              Z
 -------------------------------------------------------------------
      1        8          -0.021210536   -0.026330590    0.009859365
      2        8           0.005001730    0.010926174   -0.012442662
      3        8          -0.003107950    0.001692637    0.001177081
      4        8          -0.012077542    0.009384829   -0.010288163
      5        8           0.003632779   -0.001121929   -0.001393321
      6        8           0.005202524   -0.022815642   -0.001687554
      7        6          -0.005725196    0.010255328    0.011382962
      8        6          -0.014129411   -0.013508884   -0.002646806
      9        6           0.009288636    0.023362731   -0.000059608
     10        6          -0.002097863   -0.001759765    0.010962495
     11        6          -0.008401154   -0.005907507    0.003692528
     12        6           0.028272216    0.019600290   -0.011828705
     13        1          -0.002128781   -0.001686261    0.002403425
     14        1           0.000613471   -0.000888973   -0.000846962
     15        1           0.011609364   -0.000535329    0.005414301
     16        1           0.005870782   -0.000277045    0.007418906
     17        1           0.000127376   -0.007134866   -0.003850381
     18        1          -0.002350619    0.012713762   -0.000055490
     19        1          -0.007734327   -0.001010187   -0.003248620
     20        1           0.009344499   -0.004958773   -0.003962792
 -------------------------------------------------------------------
 Cartesian Forces:  Max     0.028272216 RMS     0.010016692
 Leave Link  716 at Sat Dec 09 23:43:33 2023, MaxMem=    33554432 cpu:         0.0
 (Enter C:\G09W\l103.exe)

 GradGradGradGradGradGradGradGradGradGradGradGradGradGradGradGradGradGrad
 Berny optimization.
 FormGI is forming the generalized inverse of G from B-inverse, IUseBI=4.
 Internal  Forces:  Max     0.026590374 RMS     0.008176884
 Search for a local minimum.
 Step number   1 out of a maximum of  109
 All quantities printed in internal units (Hartrees-Bohrs-Radians)
 RMS Force = .81769D-02 SwitMx=.10000D-02 MixMth= 1
 Mixed Optimization -- RFO/linear search
 Second derivative matrix not updated -- first step.
 ITU=  0
     Eigenvalues ---    0.00453   0.00496   0.01247   0.01333   0.01379
     Eigenvalues ---    0.01515   0.01860   0.01923   0.02172   0.02256
     Eigenvalues ---    0.02332   0.04322   0.04687   0.05053   0.05268
     Eigenvalues ---    0.05644   0.06457   0.07482   0.08682   0.11465
     Eigenvalues ---    0.13708   0.15381   0.16000   0.16000   0.16000
     Eigenvalues ---    0.16000   0.16461   0.19539   0.20684   0.22024
     Eigenvalues ---    0.24988   0.24998   0.24999   0.25000   0.30015
     Eigenvalues ---    0.30330   0.32870   0.34155   0.34172   0.34256
     Eigenvalues ---    0.34304   0.35434   0.38201   0.41409   0.41917
     Eigenvalues ---    0.48639   0.52202   0.52780   0.52840   0.52867
     Eigenvalues ---    0.52878   0.53492   0.57508   0.96099
 RFO step:  Lambda=-2.28261815D-02 EMin= 4.52789398D-03
 Linear search not attempted -- first point.
 Iteration  1 RMS(Cart)=  0.08266595 RMS(Int)=  0.00276942
 Iteration  2 RMS(Cart)=  0.00351558 RMS(Int)=  0.00066663
 Iteration  3 RMS(Cart)=  0.00000797 RMS(Int)=  0.00066660
 Iteration  4 RMS(Cart)=  0.00000001 RMS(Int)=  0.00066660
 ITry= 1 IFail=0 DXMaxC= 3.39D-01 DCOld= 1.00D+10 DXMaxT= 3.00D-01 DXLimC= 3.00D+00 Rises=F
 Variable       Old X    -DE/DX   Delta X   Delta X   Delta X     New X
                                 (Linear)    (Quad)   (Total)
    R1        2.72524   0.02267   0.00000   0.05363   0.05366   2.77890
    R2        2.58773   0.02659   0.00000   0.05047   0.05035   2.63808
    R3        2.69682   0.01541   0.00000   0.03528   0.03528   2.73210
    R4        1.83778   0.00698   0.00000   0.01266   0.01266   1.85043
    R5        2.57707   0.01433   0.00000   0.02629   0.02629   2.60336
    R6        1.83803   0.00599   0.00000   0.01087   0.01087   1.84891
    R7        2.69029   0.02495   0.00000   0.05645   0.05645   2.74674
    R8        1.83768   0.00502   0.00000   0.00911   0.00911   1.84679
    R9        2.56497   0.01205   0.00000   0.02161   0.02161   2.58658
   R10        1.83859   0.00956   0.00000   0.01736   0.01736   1.85595
   R11        2.30243   0.02194   0.00000   0.02230   0.02230   2.32473
   R12        2.87311   0.01519   0.00000   0.04658   0.04658   2.91969
   R13        2.78955   0.02466   0.00000   0.06458   0.06472   2.85427
   R14        2.07069   0.00237   0.00000   0.00650   0.00650   2.07719
   R15        2.87933   0.00351   0.00000   0.01086   0.01086   2.89018
   R16        2.07040  -0.00102   0.00000  -0.00279  -0.00279   2.06761
   R17        2.51186   0.02269   0.00000   0.03663   0.03668   2.54854
   R18        2.06901   0.00289   0.00000   0.00792   0.00792   2.07692
   R19        2.06821   0.00556   0.00000   0.01519   0.01519   2.08339
   R20        2.76731   0.00318   0.00000   0.00976   0.00965   2.77696
    A1        1.92101  -0.00248   0.00000  -0.01301  -0.01303   1.90798
    A2        1.88447   0.00651   0.00000   0.03561   0.03561   1.92007
    A3        1.87712   0.02096   0.00000   0.11463   0.11463   1.99175
    A4        1.86804   0.01246   0.00000   0.06817   0.06817   1.93621
    A5        1.87105   0.01106   0.00000   0.06048   0.06048   1.93153
    A6        1.89674  -0.00109   0.00000   0.00064   0.00000   1.89675
    A7        1.79531   0.00151   0.00000   0.01346   0.01339   1.80870
    A8        1.89153  -0.00067   0.00000  -0.01449  -0.01461   1.87692
    A9        1.98982   0.00341   0.00000   0.02629   0.02617   2.01599
   A10        1.94457  -0.00267   0.00000  -0.02529  -0.02533   1.91924
   A11        1.93731  -0.00036   0.00000   0.00055   0.00074   1.93805
   A12        1.90058   0.00248   0.00000   0.03641   0.03509   1.93567
   A13        1.88975   0.00882   0.00000   0.07343   0.07276   1.96252
   A14        1.86648  -0.00449   0.00000  -0.03647  -0.03533   1.83115
   A15        1.94588  -0.00530   0.00000  -0.00976  -0.01232   1.93356
   A16        1.94438  -0.00035   0.00000  -0.03452  -0.03501   1.90937
   A17        1.91419  -0.00079   0.00000  -0.02619  -0.02650   1.88769
   A18        2.12872   0.00711   0.00000   0.02828   0.02815   2.15687
   A19        2.20244   0.00083   0.00000   0.00523   0.00509   2.20753
   A20        1.95175  -0.00793   0.00000  -0.03327  -0.03305   1.91870
   A21        1.90199  -0.00825   0.00000  -0.02554  -0.02495   1.87704
   A22        1.86995   0.01193   0.00000   0.09070   0.09015   1.96010
   A23        1.89682   0.00608   0.00000   0.04273   0.04191   1.93874
   A24        1.94799  -0.00698   0.00000  -0.05486  -0.05524   1.89276
   A25        1.93843  -0.00148   0.00000  -0.02788  -0.02848   1.90995
   A26        1.90673  -0.00050   0.00000  -0.01825  -0.02223   1.88450
   A27        2.24159   0.00187   0.00000   0.00709   0.00708   2.24867
   A28        2.17553  -0.01123   0.00000  -0.04093  -0.04094   2.13459
   A29        1.86602   0.00936   0.00000   0.03388   0.03389   1.89992
   A30        2.19744  -0.00932   0.00000  -0.03452  -0.03445   2.16298
   A31        1.89058  -0.00047   0.00000  -0.00103  -0.00118   1.88940
   A32        2.19516   0.00980   0.00000   0.03557   0.03564   2.23080
    D1        2.10209   0.00377   0.00000   0.03942   0.03934   2.14142
    D2       -0.01290  -0.00046   0.00000   0.00155   0.00151  -0.01139
    D3       -2.06530  -0.00051   0.00000   0.00053   0.00048  -2.06482
    D4       -3.13295   0.00026   0.00000   0.00081   0.00072  -3.13223
    D5        0.01339   0.00041   0.00000  -0.00194  -0.00190   0.01149
    D6        1.07638   0.00189   0.00000   0.06586   0.06734   1.14372
    D7       -1.04223   0.00152   0.00000   0.01177   0.01012  -1.03210
    D8       -3.10372   0.00026   0.00000   0.02383   0.02401  -3.07971
    D9        0.03382  -0.00066   0.00000  -0.01523  -0.01512   0.01871
   D10       -3.08032  -0.00122   0.00000  -0.02700  -0.02712  -3.10744
   D11       -3.13598  -0.00124   0.00000  -0.00821  -0.00833   3.13887
   D12        1.03700   0.00481   0.00000   0.01892   0.02080   1.05780
   D13       -1.02131  -0.00433   0.00000  -0.03165  -0.03341  -1.05472
   D14        3.13529   0.00038   0.00000   0.00760   0.00752  -3.14037
   D15        0.00385   0.00003   0.00000   0.00145   0.00153   0.00538
   D16       -0.98303  -0.00623   0.00000  -0.06004  -0.06006  -1.04309
   D17        1.10096   0.00303   0.00000   0.04836   0.04807   1.14904
   D18       -3.03744  -0.00206   0.00000  -0.01751  -0.01723  -3.05467
   D19        1.00782  -0.00313   0.00000  -0.02807  -0.02795   0.97987
   D20        3.09181   0.00613   0.00000   0.08033   0.08018  -3.11119
   D21       -1.04660   0.00104   0.00000   0.01446   0.01488  -1.03172
   D22       -3.06596  -0.00309   0.00000  -0.02718  -0.02732  -3.09328
   D23       -0.98197   0.00618   0.00000   0.08122   0.08081  -0.90115
   D24        1.16281   0.00109   0.00000   0.01534   0.01551   1.17832
   D25       -3.10986  -0.00023   0.00000  -0.01130  -0.01129  -3.12115
   D26        0.00787   0.00036   0.00000  -0.00066  -0.00064   0.00723
   D27        1.12310  -0.00152   0.00000  -0.03326  -0.03341   1.08969
   D28       -2.04235  -0.00093   0.00000  -0.02263  -0.02276  -2.06511
   D29       -1.09009  -0.00034   0.00000  -0.02061  -0.02070  -1.11079
   D30        2.02764   0.00024   0.00000  -0.00997  -0.01005   2.01759
   D31       -1.02998   0.00029   0.00000   0.00115   0.00152  -1.02846
   D32        1.03173   0.00557   0.00000   0.06375   0.06343   1.09516
   D33       -3.11905  -0.00104   0.00000  -0.01815  -0.01723  -3.13628
   D34       -3.12039  -0.00523   0.00000  -0.08504  -0.08505   3.07775
   D35       -1.05867   0.00005   0.00000  -0.02244  -0.02314  -1.08182
   D36        1.07373  -0.00656   0.00000  -0.10434  -0.10380   0.96993
   D37        1.00085  -0.00054   0.00000  -0.01537  -0.01559   0.98525
   D38        3.06256   0.00474   0.00000   0.04723   0.04632   3.10888
   D39       -1.08822  -0.00187   0.00000  -0.03468  -0.03434  -1.12256
   D40       -0.01659   0.00040   0.00000   0.00624   0.00603  -0.01056
   D41        3.11627   0.00061   0.00000   0.01118   0.01104   3.12731
   D42       -3.13310  -0.00031   0.00000  -0.00529  -0.00536  -3.13847
   D43       -0.00024  -0.00010   0.00000  -0.00035  -0.00036  -0.00059
   D44        3.12517   0.00007   0.00000   0.00631   0.00620   3.13137
   D45       -0.01168   0.00029   0.00000   0.00380   0.00370  -0.00798
   D46       -0.00811  -0.00020   0.00000   0.00132   0.00132  -0.00679
   D47        3.13822   0.00002   0.00000  -0.00119  -0.00118   3.13704
         Item               Value     Threshold  Converged?
 Maximum Force            0.026590     0.000450     NO 
 RMS     Force            0.008177     0.000300     NO 
 Maximum Displacement     0.339449     0.001800     NO 
 RMS     Displacement     0.083281     0.001200     NO 
 Predicted change in Energy=-1.298104D-02
 Lowest energy point so far.  Saving SCF results.
 GradGradGradGradGradGradGradGradGradGradGradGradGradGradGradGradGradGrad

 Leave Link  103 at Sat Dec 09 23:43:33 2023, MaxMem=    33554432 cpu:         0.0
 (Enter C:\G09W\l202.exe)
                          Input orientation:                          
 ---------------------------------------------------------------------
 Center     Atomic      Atomic             Coordinates (Angstroms)
 Number     Number       Type             X           Y           Z
 ---------------------------------------------------------------------
      1          8           0        0.116862   -1.158661    0.620860
      2          8           0       -1.402703    0.112322   -1.466122
      3          8           0        0.845069    2.426423    0.281531
      4          8           0       -3.974518   -0.160697   -0.260273
      5          8           0        3.085229    0.564121   -0.538759
      6          8           0        2.066136   -2.182473   -0.108222
      7          6           0       -0.349189    0.229275    0.758275
      8          6           0       -1.642113    0.401299   -0.069910
      9          6           0        0.832634    1.048927    0.296950
     10          6           0       -2.777057   -0.441051    0.514443
     11          6           0        1.843197    0.233779   -0.067877
     12          6           0        1.419848   -1.160855    0.119792
     13          1           0       -0.559375    0.404266    1.822906
     14          1           0       -1.950537    1.450841   -0.048371
     15          1           0       -2.485960   -1.499661    0.464044
     16          1           0       -2.920464   -0.177791    1.575387
     17          1           0       -1.174143   -0.833215   -1.578228
     18          1           0        0.021505    2.837417    0.613330
     19          1           0       -4.734266   -0.678097    0.071621
     20          1           0        3.612045   -0.243869   -0.723675
 ---------------------------------------------------------------------
                    Distance matrix (angstroms):
                    1          2          3          4          5
     1  O    0.000000
     2  O    2.877494   0.000000
     3  O    3.673998   3.669037   0.000000
     4  O    4.302525   2.853568   5.496832   0.000000
     5  O    3.622692   4.604960   3.026443   7.102320   0.000000
     6  O    2.319358   4.375250   4.783809   6.371829   2.961029
     7  C    1.470528   2.464044   2.545781   3.785832   3.686414
     8  C    2.450435   1.445764   3.226564   2.406697   4.753324
     9  C    2.343222   2.997062   1.377639   4.988226   2.451047
    10  C    2.983464   2.473401   4.625630   1.453512   6.040365
    11  C    2.322387   3.536341   2.434344   5.834247   1.368758
    12  C    1.396011   3.478921   3.636632   5.499450   2.486509
    13  H    2.084455   3.407953   2.904724   4.040052   4.345820
    14  H    3.395807   2.025284   2.979263   2.595854   5.136700
    15  H    2.629744   2.738152   5.152010   2.129147   6.025194
    16  H    3.331453   3.411531   4.757650   2.116830   6.410023
    17  H    2.570720   0.979207   4.261591   3.167237   4.601663
    18  H    3.997223   3.711958   0.978399   5.071495   3.985171
    19  H    4.905716   3.753496   6.388356   0.977278   7.941044
    20  H    3.854987   5.081908   3.974550   7.601158   0.982129
                    6          7          8          9         10
     6  O    0.000000
     7  C    3.521525   0.000000
     8  C    4.519785   1.545036   0.000000
     9  C    3.482475   1.510416   2.584256   0.000000
    10  C    5.184282   2.530481   1.529418   3.911164   0.000000
    11  C    2.426850   2.342884   3.489334   1.348630   4.705448
    12  C    1.230196   2.338720   3.442661   2.293325   4.276433
    13  H    4.160983   1.099199   2.180615   2.163751   2.710120
    14  H    5.416475   2.169612   1.094133   2.833164   2.139895
    15  H    4.638458   2.764340   2.147285   4.187634   1.099060
    16  H    5.632004   2.728521   2.162528   4.150299   1.102485
    17  H    3.805368   2.696049   2.004506   3.329550   2.665033
    18  H    5.468130   2.638338   3.028054   1.989151   4.311621
    19  H    6.967134   4.530311   3.278191   5.832989   2.020631
    20  H    2.554761   4.255751   5.333838   3.230808   6.510948
                   11         12         13         14         15
    11  C    0.000000
    12  C    1.469506   0.000000
    13  H    3.062104   3.044261   0.000000
    14  H    3.984223   4.267168   2.555842   0.000000
    15  H    4.693544   3.935560   3.030375   3.042155   0.000000
    16  H    5.055905   4.682251   2.444340   2.495954   1.780791
    17  H    3.538923   3.117597   3.671105   2.856600   2.517119
    18  H    3.249852   4.264401   2.778618   2.499878   5.011976
    19  H    6.641837   6.173208   4.654914   3.506554   2.425664
    20  H    1.946032   2.521513   4.930101   5.854092   6.338245
                   16         17         18         19         20
    16  H    0.000000
    17  H    3.663947   0.000000
    18  H    4.321135   4.439148   0.000000
    19  H    2.408630   3.926899   5.938825   0.000000
    20  H    6.925585   4.897467   4.916694   8.395354   0.000000
 Stoichiometry    C6H8O6
 Framework group  C1[X(C6H8O6)]
 Deg. of freedom    54
 Full point group                 C1      NOp   1
 RotChk:  IX=0 Diff= 2.70D-02
 Largest Abelian subgroup         C1      NOp   1
 Largest concise Abelian subgroup C1      NOp   1
                         Standard orientation:                         
 ---------------------------------------------------------------------
 Center     Atomic      Atomic             Coordinates (Angstroms)
 Number     Number       Type             X           Y           Z
 ---------------------------------------------------------------------
      1          8           0       -0.191999   -1.148956   -0.644968
      2          8           0        1.297816    0.099232    1.476930
      3          8           0       -0.953750    2.423661   -0.252032
      4          8           0        3.882625   -0.131836    0.290246
      5          8           0       -3.185263    0.529082    0.516262
      6          8           0       -2.138970   -2.201219    0.048910
      7          6           0        0.263430    0.244955   -0.754734
      8          6           0        1.547327    0.413764    0.088028
      9          6           0       -0.929441    1.046775   -0.290517
     10          6           0        2.694625   -0.409062   -0.500006
     11          6           0       -1.936270    0.217150    0.051276
     12          6           0       -1.499381   -1.170521   -0.155954
     13          1           0        0.481702    0.439672   -1.814301
     14          1           0        1.846980    1.466064    0.086978
     15          1           0        2.412115   -1.470771   -0.470096
     16          1           0        2.845338   -0.126713   -1.555012
     17          1           0        1.076320   -0.849944    1.571011
     18          1           0       -0.130761    2.847081   -0.569316
     19          1           0        4.649713   -0.637177   -0.043340
     20          1           0       -3.706822   -0.286298    0.682725
 ---------------------------------------------------------------------
 Rotational constants (GHZ):      1.6045251      0.6013466      0.4963513
 Leave Link  202 at Sat Dec 09 23:43:34 2023, MaxMem=    33554432 cpu:         0.0
 (Enter C:\G09W\l301.exe)
 Standard basis: 6-31G (6D, 7F)
 Ernie: Thresh=  0.10000D-02 Tol=  0.10000D-05 Strict=F.
 There are   124 symmetry adapted cartesian basis functions of A   symmetry.
 There are   124 symmetry adapted basis functions of A   symmetry.
   124 basis functions,   296 primitive gaussians,   124 cartesian basis functions
    46 alpha electrons       46 beta electrons
       nuclear repulsion energy       748.3792932128 Hartrees.
 IExCor=  402 DFT=T Ex+Corr=B3LYP ExCW=0 ScaHFX=  0.200000
 ScaDFX=  0.800000  0.720000  1.000000  0.810000 ScalE2=  1.000000  1.000000
 IRadAn=      0 IRanWt=     -1 IRanGd=            0 ICorTp=0 IEmpDi=  4
 NAtoms=   20 NActive=   20 NUniq=   20 SFac= 1.00D+00 NAtFMM=   60 NAOKFM=F Big=F
 Integral buffers will be    262144 words long.
 Raffenetti 2 integral format.
 Two-electron integral symmetry is turned on.
 Leave Link  301 at Sat Dec 09 23:43:34 2023, MaxMem=    33554432 cpu:         0.0
 (Enter C:\G09W\l302.exe)
 NPDir=0 NMtPBC=     1 NCelOv=     1 NCel=       1 NClECP=     1 NCelD=      1
         NCelK=      1 NCelE2=     1 NClLst=     1 CellRange=     0.0.
 One-electron integrals computed using PRISM.
 NBasis=   124 RedAO= T EigKep=  1.47D-03  NBF=   124
 NBsUse=   124 1.00D-06 EigRej= -1.00D+00 NBFU=   124
 Precomputing XC quadrature grid using
 IXCGrd= 4 IRadAn=           0 IRanWt=          -1 IRanGd=           0 AccXCQ= 0.00D+00.
 Generated NRdTot=       0 NPtTot=           0 NUsed=           0 NTot=          16
 NSgBfM=   123   123   123   123   123 MxSgAt=    20 MxSgA2=    20.
 Leave Link  302 at Sat Dec 09 23:43:34 2023, MaxMem=    33554432 cpu:         0.0
 (Enter C:\G09W\l303.exe)
 DipDrv:  MaxL=1.
 Leave Link  303 at Sat Dec 09 23:43:34 2023, MaxMem=    33554432 cpu:         0.0
 (Enter C:\G09W\l401.exe)
 Initial guess from the checkpoint file:  "D:\DFT\Ascorbic Acid_freq.chk"
 B after Tr=     0.000000    0.000000    0.000000
         Rot=    0.999947    0.008934   -0.002228    0.004604 Ang=   1.18 deg.
 Guess basis will be translated and rotated to current coordinates.
 JPrj=2 DoOrth=T DoCkMO=T.
 Generating alternative initial guess.
 ExpMin= 1.61D-01 ExpMax= 5.48D+03 ExpMxC= 8.25D+02 IAcc=1 IRadAn=         1 AccDes= 0.00D+00
 Harris functional with IExCor=  402 and IRadAn=       1 diagonalized for initial guess.
 HarFok:  IExCor=  402 AccDes= 0.00D+00 IRadAn=         1 IDoV= 1 UseB2=F ITyADJ=14
 ICtDFT=  3500011 ScaDFX=  1.000000  1.000000  1.000000  1.000000
 FoFCou: FMM=F IPFlag=           0 FMFlag=      100000 FMFlg1=           0
         NFxFlg=           0 DoJE=T BraDBF=F KetDBF=T FulRan=T
         wScrn=  0.000000 ICntrl=     500 IOpCl=  0 I1Cent=   200000004 NGrid=           0
         NMat0=    1 NMatS0=      1 NMatT0=    0 NMatD0=    1 NMtDS0=    0 NMtDT0=    0
 Petite list used in FoFCou.
 Harris En= -684.579456977719    
 Leave Link  401 at Sat Dec 09 23:43:37 2023, MaxMem=    33554432 cpu:         3.0
 (Enter C:\G09W\l502.exe)
 Closed shell SCF:
 Using DIIS extrapolation, IDIIS=  1040.
 Integral symmetry usage will be decided dynamically.
 Keep R1 ints in memory in canonical form, NReq=31069976.
 IVT=       66101 IEndB=       66101 NGot=    33554432 MDV=     3453207
 LenX=     3453207 LenY=     3437390
 Requested convergence on RMS density matrix=1.00D-08 within 128 cycles.
 Requested convergence on MAX density matrix=1.00D-06.
 Requested convergence on             energy=1.00D-06.
 No special actions if energy rises.
 FoFCou: FMM=F IPFlag=           0 FMFlag=           0 FMFlg1=           0
         NFxFlg=           0 DoJE=F BraDBF=F KetDBF=F FulRan=T
         wScrn=  0.000000 ICntrl=     600 IOpCl=  0 I1Cent=           0 NGrid=           0
         NMat0=    1 NMatS0=   7750 NMatT0=    0 NMatD0=    1 NMtDS0=    0 NMtDT0=    0
 Symmetry not used in FoFCou.
 Integral accuracy reduced to 1.0D-05 until final iterations.

 Cycle   1  Pass 0  IDiag  1:
 E= -684.497199251778    
 DIIS: error= 4.03D-03 at cycle   1 NSaved=   1.
 NSaved= 1 IEnMin= 1 EnMin= -684.497199251778     IErMin= 1 ErrMin= 4.03D-03
 ErrMax= 4.03D-03  0.00D+00 EMaxC= 1.00D-01 BMatC= 6.32D-03 BMatP= 6.32D-03
 IDIUse=3 WtCom= 9.60D-01 WtEn= 4.03D-02
 Coeff-Com:  0.100D+01
 Coeff-En:   0.100D+01
 Coeff:      0.100D+01
 Gap=     0.700 Goal=   None    Shift=    0.000
 GapD=    0.700 DampG=2.000 DampE=1.000 DampFc=2.0000 IDamp=-1.
 RMSDP=1.90D-03 MaxDP=2.99D-02              OVMax= 1.59D-02

 Cycle   2  Pass 0  IDiag  1:
 E= -684.507779689112     Delta-E=       -0.010580437334 Rises=F Damp=F
 DIIS: error= 2.40D-03 at cycle   2 NSaved=   2.
 NSaved= 2 IEnMin= 2 EnMin= -684.507779689112     IErMin= 2 ErrMin= 2.40D-03
 ErrMax= 2.40D-03  0.00D+00 EMaxC= 1.00D-01 BMatC= 7.82D-04 BMatP= 6.32D-03
 IDIUse=3 WtCom= 9.76D-01 WtEn= 2.40D-02
 Coeff-Com:  0.123D+00 0.877D+00
 Coeff-En:   0.000D+00 0.100D+01
 Coeff:      0.120D+00 0.880D+00
 Gap=     0.187 Goal=   None    Shift=    0.000
 RMSDP=6.56D-04 MaxDP=1.20D-02 DE=-1.06D-02 OVMax= 2.05D-02

 Cycle   3  Pass 0  IDiag  1:
 E= -684.506486770144     Delta-E=        0.001292918968 Rises=F Damp=F
 DIIS: error= 5.26D-03 at cycle   3 NSaved=   3.
 NSaved= 3 IEnMin= 2 EnMin= -684.507779689112     IErMin= 2 ErrMin= 2.40D-03
 ErrMax= 5.26D-03  0.00D+00 EMaxC= 1.00D-01 BMatC= 2.38D-03 BMatP= 7.82D-04
 IDIUse=3 WtCom= 1.21D-01 WtEn= 8.79D-01
 Coeff-Com: -0.179D-01 0.651D+00 0.367D+00
 Coeff-En:   0.000D+00 0.692D+00 0.308D+00
 Coeff:     -0.217D-02 0.687D+00 0.315D+00
 Gap=     0.187 Goal=   None    Shift=    0.000
 RMSDP=3.82D-04 MaxDP=9.12D-03 DE= 1.29D-03 OVMax= 1.32D-02

 Cycle   4  Pass 0  IDiag  1:
 E= -684.508494424024     Delta-E=       -0.002007653880 Rises=F Damp=F
 DIIS: error= 4.38D-04 at cycle   4 NSaved=   4.
 NSaved= 4 IEnMin= 4 EnMin= -684.508494424024     IErMin= 4 ErrMin= 4.38D-04
 ErrMax= 4.38D-04  0.00D+00 EMaxC= 1.00D-01 BMatC= 6.13D-05 BMatP= 7.82D-04
 IDIUse=3 WtCom= 9.96D-01 WtEn= 4.38D-03
 Coeff-Com: -0.210D-01 0.332D+00 0.145D+00 0.544D+00
 Coeff-En:   0.000D+00 0.000D+00 0.000D+00 0.100D+01
 Coeff:     -0.210D-01 0.331D+00 0.144D+00 0.546D+00
 Gap=     0.187 Goal=   None    Shift=    0.000
 RMSDP=8.63D-05 MaxDP=1.74D-03 DE=-2.01D-03 OVMax= 1.30D-03

 Cycle   5  Pass 0  IDiag  1:
 E= -684.508546619185     Delta-E=       -0.000052195161 Rises=F Damp=F
 DIIS: error= 1.94D-04 at cycle   5 NSaved=   5.
 NSaved= 5 IEnMin= 5 EnMin= -684.508546619185     IErMin= 5 ErrMin= 1.94D-04
 ErrMax= 1.94D-04  0.00D+00 EMaxC= 1.00D-01 BMatC= 5.94D-06 BMatP= 6.13D-05
 IDIUse=3 WtCom= 9.98D-01 WtEn= 1.94D-03
 Coeff-Com: -0.966D-02 0.115D+00 0.447D-01 0.299D+00 0.551D+00
 Coeff-En:   0.000D+00 0.000D+00 0.000D+00 0.000D+00 0.100D+01
 Coeff:     -0.964D-02 0.115D+00 0.446D-01 0.299D+00 0.551D+00
 Gap=     0.187 Goal=   None    Shift=    0.000
 RMSDP=2.33D-05 MaxDP=5.13D-04 DE=-5.22D-05 OVMax= 4.20D-04

 Cycle   6  Pass 0  IDiag  1:
 E= -684.508550998554     Delta-E=       -0.000004379369 Rises=F Damp=F
 DIIS: error= 4.36D-05 at cycle   6 NSaved=   6.
 NSaved= 6 IEnMin= 6 EnMin= -684.508550998554     IErMin= 6 ErrMin= 4.36D-05
 ErrMax= 4.36D-05  0.00D+00 EMaxC= 1.00D-01 BMatC= 4.98D-07 BMatP= 5.94D-06
 IDIUse=1 WtCom= 1.00D+00 WtEn= 0.00D+00
 Coeff-Com: -0.184D-02 0.145D-01 0.479D-02 0.771D-01 0.275D+00 0.630D+00
 Coeff:     -0.184D-02 0.145D-01 0.479D-02 0.771D-01 0.275D+00 0.630D+00
 Gap=     0.187 Goal=   None    Shift=    0.000
 RMSDP=7.56D-06 MaxDP=1.18D-04 DE=-4.38D-06 OVMax= 2.00D-04

 Initial convergence to 1.0D-05 achieved.  Increase integral accuracy.
 Cycle   7  Pass 1  IDiag  1:
 E= -684.508565337829     Delta-E=       -0.000014339276 Rises=F Damp=F
 DIIS: error= 1.84D-05 at cycle   1 NSaved=   1.
 NSaved= 1 IEnMin= 1 EnMin= -684.508565337829     IErMin= 1 ErrMin= 1.84D-05
 ErrMax= 1.84D-05  0.00D+00 EMaxC= 1.00D-01 BMatC= 1.00D-07 BMatP= 1.00D-07
 IDIUse=1 WtCom= 1.00D+00 WtEn= 0.00D+00
 Coeff-Com:  0.100D+01
 Coeff:      0.100D+01
 Gap=     0.187 Goal=   None    Shift=    0.000
 RMSDP=7.56D-06 MaxDP=1.18D-04 DE=-1.43D-05 OVMax= 2.45D-04

 Cycle   8  Pass 1  IDiag  1:
 E= -684.508565344988     Delta-E=       -0.000000007158 Rises=F Damp=F
 DIIS: error= 2.48D-05 at cycle   2 NSaved=   2.
 NSaved= 2 IEnMin= 2 EnMin= -684.508565344988     IErMin= 1 ErrMin= 1.84D-05
 ErrMax= 2.48D-05  0.00D+00 EMaxC= 1.00D-01 BMatC= 1.35D-07 BMatP= 1.00D-07
 IDIUse=1 WtCom= 1.00D+00 WtEn= 0.00D+00
 Coeff-Com:  0.545D+00 0.455D+00
 Coeff:      0.545D+00 0.455D+00
 Gap=     0.187 Goal=   None    Shift=    0.000
 RMSDP=4.31D-06 MaxDP=7.84D-05 DE=-7.16D-09 OVMax= 2.10D-04

 Cycle   9  Pass 1  IDiag  1:
 E= -684.508565457788     Delta-E=       -0.000000112801 Rises=F Damp=F
 DIIS: error= 1.01D-05 at cycle   3 NSaved=   3.
 NSaved= 3 IEnMin= 3 EnMin= -684.508565457788     IErMin= 3 ErrMin= 1.01D-05
 ErrMax= 1.01D-05  0.00D+00 EMaxC= 1.00D-01 BMatC= 1.46D-08 BMatP= 1.00D-07
 IDIUse=1 WtCom= 1.00D+00 WtEn= 0.00D+00
 Coeff-Com:  0.550D-01 0.244D+00 0.701D+00
 Coeff:      0.550D-01 0.244D+00 0.701D+00
 Gap=     0.187 Goal=   None    Shift=    0.000
 RMSDP=1.58D-06 MaxDP=3.75D-05 DE=-1.13D-07 OVMax= 9.25D-05

 Cycle  10  Pass 1  IDiag  1:
 E= -684.508565467740     Delta-E=       -0.000000009952 Rises=F Damp=F
 DIIS: error= 6.57D-06 at cycle   4 NSaved=   4.
 NSaved= 4 IEnMin= 4 EnMin= -684.508565467740     IErMin= 4 ErrMin= 6.57D-06
 ErrMax= 6.57D-06  0.00D+00 EMaxC= 1.00D-01 BMatC= 5.05D-09 BMatP= 1.46D-08
 IDIUse=1 WtCom= 1.00D+00 WtEn= 0.00D+00
 Coeff-Com: -0.196D-01 0.123D+00 0.482D+00 0.415D+00
 Coeff:     -0.196D-01 0.123D+00 0.482D+00 0.415D+00
 Gap=     0.187 Goal=   None    Shift=    0.000
 RMSDP=6.23D-07 MaxDP=1.27D-05 DE=-9.95D-09 OVMax= 3.12D-05

 Cycle  11  Pass 1  IDiag  1:
 E= -684.508565472038     Delta-E=       -0.000000004298 Rises=F Damp=F
 DIIS: error= 1.74D-06 at cycle   5 NSaved=   5.
 NSaved= 5 IEnMin= 5 EnMin= -684.508565472038     IErMin= 5 ErrMin= 1.74D-06
 ErrMax= 1.74D-06  0.00D+00 EMaxC= 1.00D-01 BMatC= 2.30D-10 BMatP= 5.05D-09
 IDIUse=1 WtCom= 1.00D+00 WtEn= 0.00D+00
 Coeff-Com: -0.145D-01 0.685D-01 0.280D+00 0.266D+00 0.400D+00
 Coeff:     -0.145D-01 0.685D-01 0.280D+00 0.266D+00 0.400D+00
 Gap=     0.187 Goal=   None    Shift=    0.000
 RMSDP=1.45D-07 MaxDP=3.30D-06 DE=-4.30D-09 OVMax= 5.55D-06

 Cycle  12  Pass 1  IDiag  1:
 E= -684.508565472216     Delta-E=       -0.000000000179 Rises=F Damp=F
 DIIS: error= 3.38D-07 at cycle   6 NSaved=   6.
 NSaved= 6 IEnMin= 6 EnMin= -684.508565472216     IErMin= 6 ErrMin= 3.38D-07
 ErrMax= 3.38D-07  0.00D+00 EMaxC= 1.00D-01 BMatC= 1.44D-11 BMatP= 2.30D-10
 IDIUse=1 WtCom= 1.00D+00 WtEn= 0.00D+00
 Coeff-Com: -0.613D-02 0.249D-01 0.104D+00 0.104D+00 0.234D+00 0.539D+00
 Coeff:     -0.613D-02 0.249D-01 0.104D+00 0.104D+00 0.234D+00 0.539D+00
 Gap=     0.187 Goal=   None    Shift=    0.000
 RMSDP=3.87D-08 MaxDP=7.73D-07 DE=-1.79D-10 OVMax= 1.14D-06

 Cycle  13  Pass 1  IDiag  1:
 E= -684.508565472228     Delta-E=       -0.000000000011 Rises=F Damp=F
 DIIS: error= 1.33D-07 at cycle   7 NSaved=   7.
 NSaved= 7 IEnMin= 7 EnMin= -684.508565472228     IErMin= 7 ErrMin= 1.33D-07
 ErrMax= 1.33D-07  0.00D+00 EMaxC= 1.00D-01 BMatC= 2.13D-12 BMatP= 1.44D-11
 IDIUse=1 WtCom= 1.00D+00 WtEn= 0.00D+00
 Coeff-Com: -0.131D-02 0.357D-02 0.160D-01 0.179D-01 0.765D-01 0.322D+00
 Coeff-Com:  0.565D+00
 Coeff:     -0.131D-02 0.357D-02 0.160D-01 0.179D-01 0.765D-01 0.322D+00
 Coeff:      0.565D+00
 Gap=     0.187 Goal=   None    Shift=    0.000
 RMSDP=1.50D-08 MaxDP=2.64D-07 DE=-1.14D-11 OVMax= 4.51D-07

 Cycle  14  Pass 1  IDiag  1:
 E= -684.508565472208     Delta-E=        0.000000000019 Rises=F Damp=F
 DIIS: error= 3.99D-08 at cycle   8 NSaved=   8.
 NSaved= 8 IEnMin= 7 EnMin= -684.508565472228     IErMin= 8 ErrMin= 3.99D-08
 ErrMax= 3.99D-08  0.00D+00 EMaxC= 1.00D-01 BMatC= 1.36D-13 BMatP= 2.13D-12
 IDIUse=1 WtCom= 1.00D+00 WtEn= 0.00D+00
 Coeff-Com: -0.911D-04-0.439D-03-0.148D-02-0.302D-03 0.174D-01 0.106D+00
 Coeff-Com:  0.279D+00 0.600D+00
 Coeff:     -0.911D-04-0.439D-03-0.148D-02-0.302D-03 0.174D-01 0.106D+00
[...]
 00,-0.00637227,-0.08873612,-0.01700700,-0.00328663,-0.00216855,0.00364
 200,-0.00248859,-0.03025512,-0.03223073,-0.03146599,0.00112680,0.00036
 937,-0.00082266,0.00283961,-0.00306188,-0.00031290,-0.18242845,-0.0251
 1688,-0.01627562,0.56221800,0.03290268,-0.00933085,0.00875899,0.025811
 72,-0.12378478,0.06023063,0.00484576,-0.00368689,0.00185263,-0.0042101
 9,-0.00269294,0.00137468,-0.00077165,0.00052212,0.00059887,0.00084203,
 -0.00180031,-0.00166803,-0.02108345,-0.07509925,-0.01120145,0.01743372
 ,0.43927570,-0.01797914,0.00817769,-0.00655198,-0.02569236,0.03413674,
 -0.10698054,-0.00547236,0.00244506,-0.00272667,-0.01267545,-0.01046499
 ,-0.01125895,0.00069736,-0.00202281,-0.00086047,-0.00038242,0.00036579
 ,0.00038141,-0.01291499,-0.01400075,-0.08134264,-0.05110048,0.04054767
 ,0.57282480,-0.00646669,0.01038361,-0.00035999,0.00358681,-0.00157277,
 0.00072544,-0.09348065,0.03043480,0.01077382,-0.00000242,0.00095810,-0
 .00021839,-0.02464493,0.02633255,0.00020150,0.00614226,-0.01091158,0.0
 1127265,-0.12029031,0.00251028,0.05582643,-0.02944260,-0.00210771,0.03
 168854,0.53873916,0.00622469,-0.02961464,0.03162763,-0.00687146,-0.001
 85117,0.00573549,0.06343701,-0.19516631,0.13759530,0.00031938,-0.00119
 599,0.00073725,-0.00389450,0.00072407,0.00450975,-0.00428442,0.0144132
 8,-0.00510603,0.00917932,-0.07254405,-0.01248859,-0.00156524,0.0063707
 0,-0.00456256,-0.30951852,0.61513395,0.00291355,0.02038420,-0.02815685
 ,0.00753891,0.00289238,-0.00714372,-0.02319918,0.15419529,-0.19872693,
 -0.00103240,-0.00005953,-0.00132356,0.03235680,-0.02755051,-0.00118776
 ,0.00388414,0.00344686,-0.00184505,0.04545240,0.00069132,-0.13464546,0
 .00591030,-0.00640274,0.01410628,-0.05790975,-0.22468974,0.48228619,0.
 00168457,-0.00031976,0.00107534,-0.00062105,0.00476081,-0.00126765,-0.
 00000447,0.00064350,0.00064494,-0.16765222,0.00320756,-0.05083742,0.00
 045665,0.00004558,-0.00016677,0.00030193,-0.00036986,0.00018676,-0.012
 33968,-0.02853839,-0.01847689,-0.07898200,-0.02479564,-0.00441033,0.00
 046497,-0.00118940,-0.00137728,0.46126241,-0.00148926,-0.00143385,-0.0
 0118808,-0.00458108,-0.04751131,-0.00032227,-0.00023719,0.00012740,-0.
 00070042,0.04580319,-0.08477068,0.00760038,0.00059970,-0.00040255,-0.0
 0051163,0.00052385,-0.00111055,0.00020826,-0.00490297,0.00589590,-0.00
 188136,-0.00741608,-0.14420542,-0.04894662,-0.00054176,-0.00016340,0.0
 0153115,-0.00647328,0.55846196,0.00221944,0.00013755,0.00007948,0.0001
 6207,0.02870003,0.00398636,0.00006775,-0.00017432,-0.00105646,-0.02785
 271,-0.01123797,-0.07873189,0.00014353,-0.00021074,-0.00042945,0.00064
 257,-0.00032954,-0.00032369,-0.00545089,-0.00504382,-0.00478097,0.0024
 4221,-0.06015394,-0.11713775,0.00057238,0.00067737,0.00136499,-0.06646
 837,-0.03628433,0.57748614,-0.02094624,-0.00093534,0.03301595,0.000932
 84,-0.00050903,-0.00003797,0.00728429,-0.00241175,0.00085275,0.0009775
 0,0.00007671,0.00025692,-0.20863833,0.08353578,0.10895040,-0.00099511,
 0.03482010,-0.02031796,-0.02830991,0.01082532,0.01726923,-0.00086097,0
 .00022302,0.00201281,-0.27151703,0.22412027,-0.00458500,-0.00032368,-0
 .00004217,-0.00009975,0.62759083,-0.00096934,0.01101700,0.00131683,0.0
 0182043,0.00066340,-0.00186899,0.02755767,-0.03207425,0.01267256,-0.00
 043597,0.00055670,-0.00025215,0.05198351,-0.08120942,0.01129904,0.0166
 3291,-0.04131783,0.04276973,0.01143303,-0.00234693,-0.00981483,-0.0024
 3380,-0.00076493,0.00189285,0.20272894,-0.26141341,0.03817534,0.000319
 81,-0.00033585,-0.00015766,-0.33123519,0.52074571,0.03495234,-0.000775
 56,-0.02556303,-0.00281788,-0.00100550,0.00281598,-0.03343751,0.045981
 71,-0.01180111,-0.00123232,-0.00046787,0.00021199,0.14656083,-0.025932
 06,-0.15860945,-0.00116774,0.02356219,-0.00969286,0.02603073,-0.009863
 07,-0.00878355,0.00033436,0.00025716,-0.00439539,0.01628926,0.01431121
 ,-0.07977362,0.00050703,0.00044492,-0.00061741,-0.21139690,-0.12945178
 ,0.46350174,-0.11243612,0.02800208,0.04438076,0.00255955,-0.00220207,0
 .00441968,-0.00744363,0.01443361,0.00130906,0.00177915,0.00014530,0.00
 153116,-0.02357533,-0.00969304,0.03221930,-0.21174380,0.23160982,-0.08
 850914,-0.02804260,0.03725653,-0.01891760,-0.00614259,0.00089551,0.001
 50798,0.00949453,-0.00119754,-0.01887765,-0.00101191,-0.00031856,-0.00
 223473,-0.07552557,-0.00263598,0.02629992,0.45084158,0.00275644,-0.072
 83959,0.02624949,-0.00221773,0.00052725,-0.00060084,0.00299866,0.01385
 254,-0.00802299,-0.00167706,-0.00091031,-0.00055567,0.01099820,-0.0032
 9657,-0.01459760,0.23167554,-0.45524389,0.17545535,0.03509339,-0.03943
 189,-0.00488117,0.00180799,-0.00138003,0.00059723,0.01644582,-0.048855
 07,0.02877533,0.00036289,0.00143837,0.00043209,-0.02148670,-0.10652432
 ,0.07748442,-0.28588836,0.70950710,0.06620172,0.00242839,-0.11336154,-
 0.00173868,0.00147106,-0.00503090,0.01368598,-0.02039403,0.01304086,0.
 00074053,0.00034974,-0.00091959,0.00759237,0.00966120,-0.02385205,-0.0
 8821385,0.17553499,-0.15401049,-0.01610248,-0.01242209,0.01171570,0.00
 302902,0.00666649,-0.00223278,-0.03674568,0.04881624,-0.01793596,-0.00
 069593,-0.00021764,0.00210063,0.04831750,0.05661828,-0.16414718,0.0053
 9945,-0.27733196,0.45370581,0.00160497,0.01180427,0.00507310,0.0018783
 4,0.00032524,0.00215046,-0.00028818,-0.00112633,-0.00142498,-0.0013792
 5,-0.00145466,-0.00139390,-0.00177965,0.00000371,0.00020953,-0.0015542
 4,0.00042093,-0.00098433,-0.05277155,-0.03059218,-0.02361104,-0.011885
 42,-0.02984079,-0.02435006,0.00035982,0.01668892,0.01655712,-0.0042980
 8,0.00334965,0.00018409,0.00097939,-0.00038103,0.00007472,0.00121934,0
 .00204467,0.00241238,0.06648192,0.00794930,-0.03078176,-0.00858311,-0.
 00012674,0.00074455,-0.00013278,-0.00032871,0.00074199,-0.00138224,0.0
 0007995,0.00006805,0.00003484,-0.00071230,0.00015896,-0.00003539,0.002
 26930,-0.00041723,-0.00016696,-0.03228494,-0.19766911,-0.12511423,-0.0
 0050909,-0.00160879,-0.00432948,0.00131177,0.00444038,0.00111860,-0.00
 010538,0.00038983,0.00064091,-0.00044295,0.00116878,-0.00009690,-0.006
 15835,-0.00221728,0.00348377,0.02922533,0.22458852,-0.00459913,0.02374
 992,0.01080314,0.00055341,0.00035061,0.00063053,0.00051029,0.00125959,
 0.00215461,-0.00036508,-0.00026600,-0.00035876,0.00235169,-0.00044424,
 -0.00024003,-0.00210008,0.00025681,0.00016584,-0.02445529,-0.13324533,
 -0.15114348,-0.00083873,-0.00872697,-0.00307598,0.00237969,-0.02178474
 ,-0.01732793,-0.00092795,0.00116906,0.00096080,-0.00164303,0.00035099,
 -0.00111953,0.00457956,0.00173600,-0.00362924,0.02463069,0.13455976,0.
 16212158,0.00209302,-0.00090508,-0.00083408,0.00869620,0.00223664,-0.0
 0996453,0.00097069,-0.00044178,0.00052300,0.00130311,0.00020336,0.0006
 6593,-0.00062977,0.00072826,0.00043349,0.00001033,0.00040303,-0.000332
 63,-0.02279682,0.00189979,0.02853980,-0.13569610,0.01175530,0.12039756
 ,-0.00361393,0.00065228,-0.00435572,0.00504107,-0.00352497,-0.00790977
 ,-0.00030379,-0.00021564,0.00009077,-0.00081196,-0.00048004,0.00116161
 ,0.00164548,-0.00006679,0.00015952,0.14430299,-0.00054324,0.00038014,-
 0.00016274,-0.01230438,-0.01125180,0.03422192,-0.00093030,0.00039841,-
 0.00020400,0.00010597,0.00134354,0.00211332,-0.00003011,0.00002725,0.0
 0004918,-0.00007608,0.00014020,0.00000684,-0.00352936,0.00171336,0.000
 33868,0.01358814,-0.05037623,-0.02429622,-0.00003120,0.00002361,0.0005
 5580,0.01667629,-0.00624866,-0.02895409,-0.00009325,0.00021425,-0.0000
 2706,0.00003037,-0.00015728,-0.00009552,-0.00013542,0.00042054,0.00074
 068,-0.01186550,0.06600711,0.00100580,-0.00059525,0.00062687,0.0067585
 0,0.01300436,-0.01890917,0.00098744,-0.00059839,0.00038145,-0.00005992
 ,0.00054480,0.00181521,-0.00000220,0.00024360,0.00004669,0.00002443,-0
 .00004740,-0.00001344,-0.00760160,-0.00073954,0.00753796,0.11838857,-0
 .02405608,-0.22722925,-0.00216801,0.00125514,-0.00096776,0.01213883,-0
 .00449977,-0.01441291,-0.00045903,-0.00027239,0.00070285,0.00017463,-0
 .00014583,-0.00005002,0.00045058,0.00016848,0.00093055,-0.12742249,0.0
 1832115,0.24932418,-0.00011513,0.00024786,0.00020672,0.00011660,0.0004
 9923,0.00022208,-0.00029515,0.00000993,-0.00040276,-0.03493912,0.01100
 957,0.01453546,0.00000420,-0.00009270,-0.00012812,0.00001309,-0.000134
 92,0.00001601,0.00040261,0.00014908,-0.00005389,0.00776263,-0.00269511
 ,-0.00890137,-0.00044284,-0.00080654,0.00008153,-0.13837264,0.02024246
 ,0.11967639,-0.00061096,-0.00003941,0.00005465,-0.00004608,0.00020905,
 -0.00014753,0.00013589,0.00004516,0.00016549,-0.00040997,-0.00239051,-
 0.00126599,0.16437262,-0.00029926,0.00012912,0.00013645,-0.00077073,0.
 00324799,0.00177622,0.00028823,-0.00041198,0.00081048,0.00799219,0.001
 32749,-0.00412296,0.00027626,-0.00012644,-0.00027691,0.00003476,-0.000
 26955,0.00013781,0.00087422,0.00062490,0.00049574,0.01632526,-0.005827
 86,-0.02664561,-0.00074612,0.00069967,-0.00062341,0.02061412,-0.062646
 17,-0.02537776,-0.00049401,-0.00014312,0.00050992,0.00012297,0.0004827
 7,-0.00050534,0.00016737,0.00002719,0.00016901,-0.00125369,-0.00392454
 ,-0.00219384,-0.02684133,0.06177894,-0.00081825,0.00033480,0.00029989,
 -0.00087509,0.00050930,0.00286399,-0.00025476,0.00001179,0.00007405,-0
 .01527551,0.00384233,0.01330692,0.00026071,-0.00010466,-0.00025423,-0.
 00009995,-0.00002430,0.00020863,0.00122629,-0.00046532,0.00015676,0.01
 126710,-0.00117196,-0.01763727,0.00036701,-0.00022455,0.00030522,0.121
 10529,-0.02970939,-0.21182502,-0.00051299,0.00060491,0.00092643,0.0001
 3503,0.00019561,-0.00103403,-0.00011226,0.00005971,0.00013198,-0.00138
 890,-0.00320530,-0.00023425,-0.12832417,0.03402745,0.22589127,-0.00007
 354,0.00017559,-0.00054002,0.00071016,-0.00365857,-0.00118743,-0.00029
 126,0.00054465,-0.00054411,-0.01441994,0.03080798,-0.02485216,-0.00008
 999,0.00010003,0.00009787,0.00010822,0.00017700,-0.00011369,0.00041872
 ,-0.00007831,0.00031765,0.00215452,-0.00422823,0.00885905,0.00007392,-
 0.00059282,0.00039142,-0.05081477,-0.01037606,0.00745539,-0.00004588,0
 .00016657,-0.00040435,-0.00106282,-0.00024620,0.00060197,0.00000480,0.
 00002273,-0.00003958,0.00040950,0.00052165,-0.00049333,0.00264974,-0.0
 1611209,0.01249370,0.05990195,0.00145729,0.00090956,-0.00004453,-0.001
 29148,-0.00552569,-0.00253699,-0.00043354,0.00062720,-0.00033295,0.003
 84943,-0.00029118,0.00213618,-0.00003970,0.00004118,-0.00002617,0.0001
 5868,-0.00006312,-0.00009017,0.00030880,-0.00134379,0.00026069,-0.0014
 0428,-0.02028173,0.01988814,0.00036979,-0.00069631,0.00019799,-0.00570
 707,-0.21829295,0.12345865,-0.00002977,0.00026740,-0.00037973,-0.00102
 314,0.00035946,0.00066684,-0.00015933,-0.00002530,-0.00007809,0.000659
 03,0.00122562,-0.00029920,0.00075248,0.00545686,-0.00461609,0.00217839
 ,0.23602723,-0.00110475,-0.00037305,-0.00042261,-0.00118574,-0.0055052
 4,0.00043030,-0.00004601,-0.00002747,0.00024484,-0.00836383,0.00804622
 ,-0.00354754,0.00012309,-0.00008186,-0.00012551,0.00003405,-0.00022112
 ,0.00006588,0.00020387,0.00075094,0.00012583,0.00030980,-0.01436075,0.
 01069102,-0.00002277,0.00013996,-0.00006430,0.00848204,0.12652352,-0.1
 5276018,-0.00006200,0.00003000,0.00022222,0.00019574,0.00037574,-0.000
 37956,0.00018222,-0.00007892,-0.00000334,0.00042884,0.00056919,0.00073
 966,0.00248959,0.02189062,-0.01389471,-0.00157610,-0.13786526,0.160138
 35,0.00032661,-0.00066147,0.00023134,-0.35409910,-0.04157989,-0.172988
 03,-0.00015397,0.00025259,0.00110078,-0.00194289,-0.00039795,0.0005396
 6,0.00028730,-0.00010682,-0.00020156,0.00014925,-0.00025974,0.00013668
 ,0.00018183,0.00120695,-0.00133464,-0.00833565,-0.00001803,-0.00551912
 ,0.00028911,-0.00024645,0.00014128,0.00184468,-0.00010063,0.00053248,-
 0.00017722,0.00002141,0.00023892,-0.00016079,0.00034056,-0.00030311,0.
 00008408,-0.00014678,0.00006125,0.00051031,-0.00124016,0.00139373,-0.0
 0068992,0.00064234,-0.00000268,-0.00151281,-0.00050468,-0.00048133,0.3
 6568122,0.00275226,-0.00092230,0.00025586,-0.08335165,-0.04178883,-0.0
 2553350,-0.00055403,0.00049456,-0.00009687,0.00183804,0.00098508,-0.00
 089752,-0.00012129,0.00000663,0.00003154,0.00028173,-0.00038478,-0.000
 24577,-0.00114766,-0.00577681,0.00284843,0.03423201,-0.00067342,0.0219
 3927,-0.00011563,-0.00069376,0.00052012,0.00654896,-0.00339451,0.00360
 978,0.00010045,0.00003874,-0.00035309,-0.00060758,0.00023911,0.0011439
 7,-0.00034098,0.00017538,0.00007812,-0.00002517,-0.00006288,-0.0000697
 2,-0.00074867,-0.00033002,-0.00044206,-0.00067571,0.00102580,-0.000346
 34,0.04236581,0.04769740,-0.00065191,-0.00021493,0.00034521,-0.1543156
 0,-0.00193829,-0.10259281,0.00351145,-0.00125968,-0.00169568,-0.000240
 05,0.00059433,-0.00424568,0.00021071,-0.00014227,-0.00021830,0.0000230
 0,-0.00011877,0.00011756,0.00158385,0.00310824,-0.00211735,-0.02681879
 ,0.00201170,-0.01256639,-0.00030211,0.00066811,-0.00007714,0.00009230,
 -0.00092089,0.00246757,-0.00002415,-0.00013806,0.00024636,0.00001708,0
 .00027293,-0.00047638,0.00015479,-0.00013964,-0.00001117,-0.00034823,-
 0.00002759,-0.00087760,0.00022959,-0.00036576,-0.00029179,-0.00047869,
 -0.00008290,-0.00057574,0.17895680,0.00021701,0.11849967,-0.00530034,0
 .00000047,0.00277855,-0.00165202,0.00550589,-0.00786638,-0.33565282,0.
 14071263,0.02378621,0.00008947,0.00110120,-0.00041448,0.00178719,-0.00
 054370,-0.00190390,0.00001509,-0.00195238,0.00155943,0.00530877,-0.002
 24280,0.00194292,0.00629709,-0.00782601,0.00573793,-0.00787558,0.01046
 187,-0.00621384,0.00012734,0.00032546,-0.00098190,0.00080990,-0.006487
 50,0.00729763,0.00349894,0.00316515,-0.00536340,0.00024899,0.00009412,
 -0.00057311,-0.00096956,0.00204421,-0.00179649,0.00014973,-0.00011861,
 0.00023822,0.00043660,0.00081656,0.00030241,-0.00166759,0.00104447,-0.
 00179640,0.33494653,0.00059273,-0.00004207,-0.00225007,0.00469077,-0.0
 0617566,-0.00180647,0.11166434,-0.07436874,0.00542831,0.00072272,0.000
 03275,-0.00009739,-0.00198136,0.00057188,0.00154598,-0.00083855,0.0004
 5122,-0.00050673,-0.00117079,0.00156056,0.00114136,-0.00322297,-0.0021
 8826,0.00394212,0.03601816,-0.02931818,0.00555353,-0.00089167,-0.00028
 538,0.00073472,-0.00048527,0.00265217,0.00164699,0.00147615,-0.0017541
 1,0.00288738,0.00008237,-0.00007359,-0.00041071,0.00015844,-0.00010087
 ,-0.00030300,0.00026972,-0.00039663,-0.00023847,0.00017793,-0.00005432
 ,-0.00022330,-0.00063264,0.00031796,-0.00008350,-0.14686475,0.10930596
 ,0.00242032,-0.00226536,-0.00081307,-0.00442577,0.00005287,-0.00680298
 ,0.05818331,-0.01116589,-0.03732140,-0.00026448,-0.00064814,-0.0006466
 7,-0.00052491,-0.00046252,0.00041049,0.00020857,-0.00003063,-0.0013036
 5,-0.00204701,0.00236872,-0.00164971,0.00118097,0.00367764,-0.00331702
 ,-0.03583875,0.02304851,-0.00447930,-0.00038336,0.00018025,0.00104884,
 0.00305055,0.00372706,-0.00527022,-0.00243399,0.00147113,0.00491443,0.
 00013423,-0.00016379,-0.00094124,-0.00017404,-0.00023819,0.00026891,0.
 00013393,-0.00022424,-0.00017840,-0.00004202,-0.00032459,-0.00023202,-
 0.00243618,-0.00161896,0.00401014,-0.01689869,-0.01701843,0.05191133,0
 .00023399,0.00004815,0.00027227,0.00099549,0.00162822,0.00026465,0.000
 23186,-0.00006053,0.00024629,-0.09116422,-0.09041800,-0.08914527,0.000
 13546,0.00001568,-0.00004229,0.00005628,-0.00008237,0.00010704,0.00024
 057,-0.00180670,-0.00118820,-0.00791084,0.00269765,-0.00146929,0.00017
 292,0.00012297,-0.00027488,-0.01650899,-0.03077709,-0.02304582,-0.0000
 6385,0.00003101,0.00025256,-0.00001629,0.00013900,-0.00028193,-0.00053
 977,0.00005207,-0.00010468,0.00017403,0.00021890,0.00000028,0.00032442
 ,-0.00069660,0.00064918,0.00145549,0.00005767,0.00008405,-0.00054695,-
 0.00153483,0.00020635,-0.00031704,-0.00017604,-0.00003056,0.11312613,-
 0.00009245,0.00022756,0.00005585,-0.00258697,-0.00011830,-0.00093460,-
 0.00021949,0.00012729,0.00014890,-0.13835147,-0.28203549,-0.20361981,0
 .00001340,0.00000259,0.00000481,-0.00000950,-0.00005663,0.00004778,0.0
 0045149,0.00016948,0.00026280,0.00209135,-0.00238869,0.00163177,-0.000
 03102,-0.00007301,0.00005746,0.01524706,0.00444627,0.00956805,-0.00002
 793,0.00001120,0.00005911,-0.00004407,0.00010976,-0.00017494,0.0000958
 4,0.00008826,0.00008624,0.00006641,0.00022948,0.00027217,0.00030131,0.
 00022643,0.00058280,0.00113436,0.00064448,0.00071329,0.00104966,0.0030
 2828,-0.00147713,0.00036137,-0.00004339,-0.00035751,0.12055549,0.27539
 500,0.00040683,0.00013297,-0.00001817,0.00144859,0.00185665,0.00033861
 ,-0.00006550,0.00011838,-0.00029463,-0.11381381,-0.18294508,-0.1470183
 2,-0.00002860,0.00001646,-0.00000945,0.00002243,0.00014925,-0.00011118
 ,0.00022433,-0.00092152,0.00002946,-0.00359329,0.00155099,-0.00025932,
 0.00009028,-0.00014855,0.00015756,0.00075704,-0.01248104,-0.00752939,-
 0.00007838,0.00013825,-0.00014698,-0.00023409,-0.00020537,0.00033321,-
 0.00017629,0.00002560,-0.00002189,0.00018722,0.00032104,0.00028430,0.0
 0140052,0.00034440,0.00119097,0.00002788,0.00002929,-0.00066362,-0.000
 07741,-0.00109098,0.00003765,-0.00001499,0.00003971,0.00019967,0.11351
 058,0.19307568,0.15347070,0.00156846,-0.00058522,-0.00180707,0.0003078
 8,-0.00016559,-0.00003229,0.00077003,-0.00189729,0.00092731,0.00032735
 ,0.00000121,0.00007096,-0.13640528,0.16271610,-0.04806733,0.00112174,-
 0.00245520,-0.00161384,-0.00006162,0.00218284,0.00027761,-0.00014978,0
 .00016943,-0.00003386,-0.00154652,-0.00103979,0.00259827,-0.00025414,-
 0.00006322,-0.00005437,-0.03025620,0.03213859,-0.00852699,-0.00137359,
 0.00395874,0.00045004,-0.00014688,-0.00016771,0.00025506,0.00007515,-0
 .00001601,-0.00005374,-0.00000971,-0.00000529,-0.00007797,-0.00001262,
 -0.00001514,0.00000682,-0.00006749,0.00005948,-0.00000998,-0.00028071,
 0.00041071,0.00018787,-0.00007871,-0.00000481,0.00000667,0.16647264,0.
 00046901,-0.00154632,0.00026495,-0.00017531,-0.00008631,0.00006434,-0.
 00027541,0.00141626,-0.00127544,-0.00006751,-0.00007915,-0.00001815,0.
 19351241,-0.27363109,0.10947893,0.00155765,-0.00210747,-0.00249634,0.0
 0141881,0.00107063,0.00076787,0.00023112,-0.00007816,-0.00029530,-0.00
 191751,-0.00022039,0.00123053,-0.00003612,0.00004155,-0.00003496,0.004
 49171,-0.01120529,0.00409498,-0.00420366,0.00609395,0.00141319,-0.0001
 7757,-0.00021937,0.00044930,0.00001611,-0.00000125,0.00001071,0.000013
 35,0.00007496,0.00003339,-0.00003888,-0.00001041,0.00004382,0.00001591
 ,0.00001837,0.00003707,0.00040235,-0.00009130,-0.00000792,-0.00001464,
 0.00000942,-0.00000615,-0.19522182,0.28055138,-0.00287524,0.00122385,0
 .00052739,-0.00037673,0.00004039,-0.00014600,-0.00049690,0.00064717,-0
 .00024074,-0.00010792,-0.00003636,-0.00010201,-0.08606518,0.14488857,-
 0.08335033,-0.00559781,0.00131285,0.00151596,0.00137849,-0.00032824,0.
 00150712,0.00051362,0.00021446,-0.00043111,0.00337845,-0.00011720,-0.0
 0456491,0.00002238,0.00000588,0.00011032,0.02549105,-0.02763996,0.0012
 9278,0.00903786,-0.00670389,0.00124906,-0.00016105,0.00013176,-0.00002
 644,0.00014267,-0.00002709,0.00003577,0.00001189,0.00003771,-0.0000064
 1,0.00002652,0.00003889,0.00001101,0.00001112,0.00005072,0.00002187,0.
 00018027,0.00001801,0.00019188,-0.00001034,-0.00000271,0.00003085,0.05
 549683,-0.11375480,0.08237394||0.00003068,-0.00005709,0.00001381,-0.00
 000788,-0.00003047,0.00005005,0.00000972,0.00001260,0.00000581,-0.0000
 3298,0.00004324,-0.00000895,-0.00000930,0.00000732,0.00000448,-0.00001
 303,0.00000306,-0.00001659,-0.00000970,0.00003482,-0.00005263,-0.00000
 217,0.00003593,-0.00001714,-0.00001924,0.00001031,0.00000575,0.0000359
 7,-0.00002511,0.00001107,0.00001131,-0.00001931,-0.00001802,0.00000625
 ,-0.00001730,0.00002470,-0.00002113,-0.00000027,0.00000858,0.00000370,
 -0.00000717,0.00000364,0.00001083,0.00001316,-0.00000147,0.00000342,0.
 00000676,0.00001125,-0.00000504,0.00000987,-0.00001656,0.00000368,-0.0
 0001632,-0.00000884,0.00000459,0.00000663,0.00000609,0.00000033,-0.000
 01064,-0.00000504|||@


 DEFINE YOUR TERMS, YOU WILL PERMIT ME AGAIN TO SAY, 
 OR WE SHALL NEVER UNDERSTAND ONE ANOTHER.

                                    -- VOLTAIRE
 Job cpu time:       0 days  0 hours  5 minutes 51.0 seconds.
 File lengths (MBytes):  RWF=     51 Int=      0 D2E=      0 Chk=      2 Scr=      1
 Normal termination of Gaussian 09 at Sun Dec 10 00:46:39 2023.
